# vtk DataFile Version 1.0.
RESULT
ASCII

DATASET UNSTRUCTURED_GRID

POINTS 4787 float
      0.00000000E+00      0.00000000E+00      0.00000000E+00
      0.00000000E+00      1.49253731E-02      0.00000000E+00
      1.49253731E-02      0.00000000E+00      0.00000000E+00
      1.05549673E-02      1.05549673E-02      0.00000000E+00
      2.47423625E-02      1.02471296E-02      0.00000000E+00
      1.02471296E-02      2.47423625E-02      0.00000000E+00
      0.00000000E+00      2.98507463E-02      0.00000000E+00
      2.98507463E-02      0.00000000E+00      0.00000000E+00
      2.11099346E-02      2.11099346E-02      0.00000000E+00
      3.58486467E-02      1.41219350E-02      0.00000000E+00
      1.48241638E-02      3.57872633E-02      0.00000000E+00
      0.00000000E+00      4.47761194E-02      0.00000000E+00
      4.47761194E-02      0.00000000E+00      0.00000000E+00
      3.16649020E-02      3.16649020E-02      0.00000000E+00
      4.59162051E-02      2.69887254E-02      0.00000000E+00
      1.29903811E-02      5.22388060E-02      0.00000000E+00
      2.77567991E-02      4.61279722E-02      0.00000000E+00
      5.32982094E-02      1.15973305E-02      0.00000000E+00
      0.00000000E+00      5.97014925E-02      0.00000000E+00
      5.97014925E-02      0.00000000E+00      0.00000000E+00
      4.22198693E-02      4.22198693E-02      0.00000000E+00
      2.52842778E-02      5.86589411E-02      0.00000000E+00
      5.23083731E-02      3.75075176E-02      0.00000000E+00
      6.01572304E-02      2.48207978E-02      0.00000000E+00
      1.29903811E-02      6.71641791E-02      0.00000000E+00
      3.83117664E-02      5.66829395E-02      0.00000000E+00
      6.78719656E-02      1.20775990E-02      0.00000000E+00
      0.00000000E+00      7.46268657E-02      0.00000000E+00
      7.46268657E-02      0.00000000E+00      0.00000000E+00
      5.27748366E-02      5.27748366E-02      0.00000000E+00
      3.05535662E-02      7.12974191E-02      0.00000000E+00
      6.62158210E-02      4.30567754E-02      0.00000000E+00
      7.49627439E-02      2.52163558E-02      0.00000000E+00
      1.29903811E-02      8.20895522E-02      0.00000000E+00
      4.88667337E-02      6.72379068E-02      0.00000000E+00
      8.25870234E-02      1.23798286E-02      0.00000000E+00
      0.00000000E+00      8.95522388E-02      0.00000000E+00
      8.95522388E-02      0.00000000E+00      0.00000000E+00
      6.33298039E-02      6.33298039E-02      0.00000000E+00
      8.21848848E-02      3.83264153E-02      0.00000000E+00
      2.80876964E-02      8.87749999E-02      0.00000000E+00
      4.49586309E-02      8.17009770E-02      0.00000000E+00
      8.98312662E-02      2.54591767E-02      0.00000000E+00
      7.79777123E-02      5.59980730E-02      0.00000000E+00
      1.29903811E-02      9.70149254E-02      0.00000000E+00
      5.94217011E-02      7.77928741E-02      0.00000000E+00
      9.73911191E-02      1.25596796E-02      0.00000000E+00
      9.06642336E-02      5.08591285E-02      0.00000000E+00
      0.00000000E+00      1.04477612E-01      0.00000000E+00
      1.04477612E-01      0.00000000E+00      0.00000000E+00
      7.38847713E-02      7.38847713E-02      0.00000000E+00
      9.71559577E-02      3.85201646E-02      0.00000000E+00
      4.10767383E-02      9.61394679E-02      0.00000000E+00
      5.54770455E-02      9.21182414E-02      0.00000000E+00
      2.59564811E-02      1.04407658E-01      0.00000000E+00
      1.04728976E-01      2.56015773E-02      0.00000000E+00
      1.29903811E-02      1.11940299E-01      0.00000000E+00
      6.99766684E-02      8.83478415E-02      0.00000000E+00
      1.12248112E-01      1.26633453E-02      0.00000000E+00
      9.15867593E-02      6.65315435E-02      0.00000000E+00
      1.04600692E-01      5.14958179E-02      0.00000000E+00
      5.15421786E-02      1.06588230E-01      0.00000000E+00
      3.89363705E-02      1.11860939E-01      0.00000000E+00
      1.12114022E-01      3.86324224E-02      0.00000000E+00
      0.00000000E+00      1.19402985E-01      0.00000000E+00
      1.19402985E-01      0.00000000E+00      0.00000000E+00
      8.44397386E-02      8.44397386E-02      0.00000000E+00
      6.60369636E-02      1.02745711E-01      0.00000000E+00
      2.59807621E-02      1.19402985E-01      0.00000000E+00
      1.19640740E-01      2.56828916E-02      0.00000000E+00
      1.29903811E-02      1.26865672E-01      0.00000000E+00
      8.05316357E-02      9.89028088E-02      0.00000000E+00
      9.89028088E-02      8.05316357E-02      0.00000000E+00
      1.27135513E-01      1.27218767E-02      0.00000000E+00
      1.10167760E-01      6.61256106E-02      0.00000000E+00
      6.15552678E-02      1.14438885E-01      0.00000000E+00
      1.19583719E-01      5.16760855E-02      0.00000000E+00
      5.02520052E-02      1.21208846E-01      0.00000000E+00
      3.89589853E-02      1.26851927E-01      0.00000000E+00
      1.27060341E-01      3.86960215E-02      0.00000000E+00
      1.34328358E-01      0.00000000E+00      0.00000000E+00
      0.00000000E+00      1.34328358E-01      0.00000000E+00
      9.49947059E-02      9.49947059E-02      0.00000000E+00
      2.59564811E-02      1.34258404E-01      0.00000000E+00
      7.66235328E-02      1.13365879E-01      0.00000000E+00
      1.34559388E-01      2.57285107E-02      0.00000000E+00
      1.07774444E-01      9.29542667E-02      0.00000000E+00
      1.26920291E-01      6.44648326E-02      0.00000000E+00
      1.29903811E-02      1.41791045E-01      0.00000000E+00
      9.10866030E-02      1.09457776E-01      0.00000000E+00
      1.42040033E-01      1.27544447E-02      0.00000000E+00
      6.33216589E-02      1.28285759E-01      0.00000000E+00
      1.34562852E-01      5.15894343E-02      0.00000000E+00
      5.04121477E-02      1.35650748E-01      0.00000000E+00
      1.19412287E-01      8.20537481E-02      0.00000000E+00
      1.41725753E-01      3.85043046E-02      0.00000000E+00
      3.88873655E-02      1.41842762E-01      0.00000000E+00
      0.00000000E+00      1.49253731E-01      0.00000000E+00
      1.49253731E-01      0.00000000E+00      0.00000000E+00
      1.05549673E-01      1.05549673E-01      0.00000000E+00
      2.59807621E-02      1.49253731E-01      0.00000000E+00
      8.72437008E-02      1.23952448E-01      0.00000000E+00
      1.49481433E-01      2.57537776E-02      0.00000000E+00
      1.34331549E-01      7.74982283E-02      0.00000000E+00
      7.64443457E-02      1.35186079E-01      0.00000000E+00
      1.41892837E-01      6.45512951E-02      0.00000000E+00
      6.35908799E-02      1.42575783E-01      0.00000000E+00
      1.29903811E-02      1.56716418E-01      0.00000000E+00
      1.20012743E-01      1.01641570E-01      0.00000000E+00
      1.01641570E-01      1.20012743E-01      0.00000000E+00
      1.56954054E-01      1.27723671E-02      0.00000000E+00
      1.49121384E-01      5.15325919E-02      0.00000000E+00
      5.07979939E-02      1.50190058E-01      0.00000000E+00
      1.56649583E-01      3.85804553E-02      0.00000000E+00
      3.88873655E-02      1.56664701E-01      0.00000000E+00
      0.00000000E+00      1.64179104E-01      0.00000000E+00
      1.64179104E-01      0.00000000E+00      0.00000000E+00
      1.16104641E-01      1.16104641E-01      0.00000000E+00
      1.34276734E-01      9.46188098E-02      0.00000000E+00
      9.84536426E-02      1.33318984E-01      0.00000000E+00
      2.59564811E-02      1.64249058E-01      0.00000000E+00
      1.64405159E-01      2.57676338E-02      0.00000000E+00
      1.50259216E-01      7.49903445E-02      0.00000000E+00
      8.89904695E-02      1.42496656E-01      0.00000000E+00
      7.64922591E-02      1.50142767E-01      0.00000000E+00
      1.56864252E-01      6.43479194E-02      0.00000000E+00
      6.39109299E-02      1.57294627E-01      0.00000000E+00
      1.64111382E-01      5.12225518E-02      0.00000000E+00
      1.29903811E-02      1.71641791E-01      0.00000000E+00
      1.12196538E-01      1.30567711E-01      0.00000000E+00
      1.30567711E-01      1.12196538E-01      0.00000000E+00
      1.71873289E-01      1.27821439E-02      0.00000000E+00
      5.10468512E-02      1.64840453E-01      0.00000000E+00
      1.71625028E-01      3.88115156E-02      0.00000000E+00
      3.89589853E-02      1.71655535E-01      0.00000000E+00
      1.53655655E-01      9.13280520E-02      0.00000000E+00
      1.79104478E-01      0.00000000E+00      0.00000000E+00
      0.00000000E+00      1.79104478E-01      0.00000000E+00
      1.26659608E-01      1.26659608E-01      0.00000000E+00
      1.04234197E-01      1.46611902E-01      0.00000000E+00
      1.79036149E-01      2.58753393E-02      0.00000000E+00
      2.59807621E-02      1.79104478E-01      0.00000000E+00
      8.95466502E-02      1.57464673E-01      0.00000000E+00
      1.64551788E-01      7.72262279E-02      0.00000000E+00
      7.66212569E-02      1.65011967E-01      0.00000000E+00
      1.47579902E-01      1.07558536E-01      0.00000000E+00
      6.42017929E-02      1.71905871E-01      0.00000000E+00
      1.72582542E-01      6.47234813E-02      0.00000000E+00
      1.79122804E-01      5.17966110E-02      0.00000000E+00
      5.13827302E-02      1.79563824E-01      0.00000000E+00
      1.29903811E-02      1.86567164E-01      0.00000000E+00
      1.86567164E-01      1.29903811E-02      0.00000000E+00
      1.22751505E-01      1.41122678E-01      0.00000000E+00
      1.42660247E-01      1.21722171E-01      0.00000000E+00
      1.86602252E-01      3.88009508E-02      0.00000000E+00
      3.89363705E-02      1.86646524E-01      0.00000000E+00
      1.68613879E-01      9.03094460E-02      0.00000000E+00
      1.62037423E-01      1.03759142E-01      0.00000000E+00
      1.02409034E-01      1.64477038E-01      0.00000000E+00
      1.94029851E-01      0.00000000E+00      0.00000000E+00
      0.00000000E+00      1.94029851E-01      0.00000000E+00
      1.37214575E-01      1.37214575E-01      0.00000000E+00
[...]
POINT_DATA 4787
SCALARS Potential float
LOOKUP_TABLE default
-0.000001
0.298602
0.804931
0.655376
1.229411
0.729126
0.398346
1.423930
1.118260
1.666484
0.931756
0.444996
2.002973
1.534516
2.059618
0.902006
1.413554
2.330254
0.468937
2.571734
1.933950
1.337504
2.302949
2.592581
0.914762
1.799636
2.881413
0.476055
3.136707
2.322130
1.524957
2.818509
3.148048
0.914004
2.177292
3.437355
0.470757
3.702046
2.703872
3.415472
1.430278
2.028773
3.708470
3.248236
0.902957
2.550257
3.998676
3.725043
0.455425
4.270011
3.080171
3.978658
1.876179
2.391680
1.338253
4.273463
0.882689
2.918708
4.565562
3.742508
4.248606
2.228685
1.776427
4.546127
0.431342
4.842022
3.452597
2.752145
1.313296
4.843531
0.854266
3.283326
3.993543
5.138296
4.439737
2.568082
4.817307
2.153349
1.745895
5.118526
5.419119
0.399543
3.821002
1.279518
3.110277
5.419230
4.299101
5.078467
0.818640
3.644271
5.717265
2.596962
5.392158
2.123040
4.759687
5.686226
1.705249
0.360919
6.002129
4.185818
1.240417
3.465812
6.001177
5.336648
3.045070
5.653860
2.566260
0.776623
4.735032
4.001724
6.302920
5.957105
2.094455
6.270151
1.661407
0.316249
6.591751
4.547297
5.292464
3.843781
1.193619
6.589931
5.955944
3.471413
2.998706
6.236544
2.530040
6.546147
0.728937
4.355906
5.100367
6.895734
2.055104
6.863033
1.613930
6.044986
7.188595
0.266243
4.904989
4.007031
7.174130
1.143634
3.437365
6.508209
2.949844
5.761003
2.487704
6.854927
7.142055
2.013348
0.676262
7.486880
4.705895
5.524121
7.464079
1.558180
6.630704
6.330513
3.870739
7.793278
0.211595
5.258912
3.382561
4.368595
7.102434
2.894825
7.780054
1.086849
6.095273
2.438635
1.961886
0.619291
8.095454
5.051925
5.852776
7.598142
7.882668
6.913966
1.483218
8.071593
6.619631
3.817623
7.278633
4.313316
4.816291
3.346138
7.606918
8.406278
0.152992
5.608495
2.842937
1.027750
8.395007
2.355904
6.412691
1.882704
0.558702
8.712664
5.393686
6.206889
7.130937
1.406607
3.749873
4.667061
8.156969
8.398533
4.223482
7.897808
6.986437
8.627403
7.584748
8.843615
9.028025
0.091133
5.953529
0.965356
5.175981
3.386216
6.784101
2.798045
1.810809
9.288218
2.325515
0.495209
5.730440
6.521565
7.575472
8.767322
9.005668
8.526366
4.056858
1.369275
7.282340
9.247874
4.733016
8.287893
9.504701
9.659301
0.026732
6.293273
8.071779
0.898708
7.064135
1.711141
3.188982
5.394256
2.685484
7.834965
3.819882
2.170066
9.388493
9.145516
0.429531
9.974590
6.860812
8.885453
9.650205
4.447604
1.303442
9.898047
7.638812
8.676508
6.041282
10.138729
10.300099
-0.039484
6.626985
8.421402
0.832009
5.069468
7.443373
3.038677
3.545442
2.534998
1.901726
8.223410
9.743766
9.491648
10.021991
4.185553
9.280104
10.279776
7.174980
5.612030
0.362398
10.620362
1.347496
10.532978
6.473598
9.024805
8.039459
4.829620
10.783379
6.165804
10.951233
-0.106764
6.954926
8.828294
3.381042
2.878160
7.754627
3.892405
0.764041
5.368242
2.405017
10.103331
10.383610
8.534611
9.910325
1.839003
9.642403
4.581213
1.377291
6.700958
7.530315
5.914044
0.294569
11.276762
10.767545
11.014671
11.185870
9.416321
8.348669
5.113084
9.115843
3.218804
3.724674
4.227022
6.462449
10.726685
2.752288
7.268749
11.612894
-0.174321
8.038526
2.257684
11.591935
0.694056
5.649474
10.553623
10.251422
8.921975
1.744420
10.049402
6.186150
4.876532
7.843503
7.001455
1.260242
0.238177
8.627594
11.943574
9.736776
11.542882
11.777530
3.581731
5.406687
4.079658
11.374702
3.090630
9.513513
4.528226
2.593675
11.172584
6.737081
12.037332
10.891167
7.567840
0.695791
2.140627
12.285296
-0.241333
8.428174
5.944743
9.234189
10.661709
12.328634
1.621727
10.359267
6.443708
8.142129
7.286906
5.025503
1.157039
8.981932
0.160125
12.621364
10.119292
3.934976
3.441313
4.431653
2.954142
12.040864
12.292078
5.685885
11.839479
11.543581
12.518932
9.856367
0.676275
2.476612
6.995845
7.851841
1.990624
12.756225
11.319300
8.726828
12.968836
-0.307000
11.006341
6.220294
9.548489
13.005863
1.517441
10.758960
7.557048
8.425739
6.761934
4.830845
5.438344
3.829546
1.044604
4.265793
3.297990
10.481118
9.323120
12.709608
0.095121
13.310519
12.489630
2.812829
12.210026
12.974216
11.964493
13.190576
2.311896
5.962078
11.660022
8.120218
0.572421
7.261249
9.010317
1.892251
13.441589
11.399897
10.152206
13.663784
-0.370481
1.418903
5.189081
13.688033
11.076264
6.542814
7.811684
3.655475
4.146238
3.146479
5.704643
4.642669
13.396454
12.888441
13.179840
0.953139
8.841277
9.934048
2.667517
12.648239
13.668463
14.011199
0.032735
12.336092
13.874817
10.792444
2.197144
7.090770
8.373806
12.070708
0.480783
1.783367
14.115596
9.647062
11.744401
10.497789
14.370258
-0.430928
1.316002
5.450399
14.383716
3.969211
3.488760
6.341034
8.158068
8.865540
11.431649
7.709792
4.449087
13.581425
13.860306
2.990738
14.090205
13.325286
13.019979
4.943628
5.961528
2.555684
14.352648
10.269065
0.875781
9.469767
12.744223
11.144486
14.571837
14.723451
-0.026195
8.611296
6.869372
2.092070
12.412075
1.611236
0.386889
9.940170
12.121931
10.888829
4.679667
7.406593
8.273460
9.183785
4.242712
15.088288
-0.487515
3.807865
1.233637
3.338465
15.094146
14.287666
11.812362
6.570846
14.035623
14.573964
13.725517
2.879661
14.811723
13.445750
10.566709
15.044911
2.411495
8.832703
13.112281
9.770939
7.947703
15.270826
5.666132
11.496739
6.169226
1.923656
15.447337
-0.080804
7.093099
12.815428
5.068411
0.885700
12.437310
1.464128
10.287777
9.394915
8.490080
4.572874
3.644893
4.112223
11.216399
7.625571
3.230665
15.006599
14.743676
14.439760
15.817725
-0.539519
15.285796
0.321875
12.175565
14.153677
2.738971
15.531555
13.819949
15.863200
9.037889
2.277691
6.631833
15.780027
8.152046
9.982391
10.899951
6.013960
5.544458
13.512466
1.826946
11.884299
13.142171
-0.130605
16.225711
8.692750
9.586806
0.721192
5.007348
7.301291
3.977239
4.428097
10.587341
3.538884
1.212902
15.174231
15.479868
15.741747
3.086145
14.848217
11.564528
16.021239
14.553154
9.226533
16.557898
-0.586147
16.257232
12.962304
0.274784
2.645620
8.340775
10.175165
12.579744
14.241566
7.961981
5.469582
2.188060
5.887239
16.513802
6.316428
6.835161
11.210573
13.866932
16.708813
9.761921
8.878982
12.251830
16.928180
-0.174482
0.696435
4.279539
10.781922
3.832186
4.726422
5.180412
1.630667
3.380945
15.592933
13.680801
16.223763
15.944598
16.483767
9.398410
2.998904
15.298478
16.755553
10.352115
8.512600
14.981331
7.518161
16.996863
2.509279
11.874306
17.308948
-0.626575
5.726190
13.374635
0.232757
6.176786
6.640918
17.247185
1.101295
14.688807
9.919187
9.048763
11.413203
7.057151
12.965851
17.472073
8.153480
14.340115
2.005787
4.136610
3.709027
17.684510
-0.211803
10.960133
9.553628
16.681289
16.953530
8.669355
16.396527
3.299999
0.636355
14.023533
17.240549
4.661492
5.108626
2.864265
12.562727
16.101376
17.510556
15.824965
5.591109
15.443336
1.454900
6.037075
17.750018
9.201727
6.494931
2.446065
12.081401
9.998882
6.905153
7.861692
13.695040
18.070257
-0.660127
7.385890
0.198780
18.068477
17.998845
15.174136
11.592698
1.029685
3.984087
13.277669
9.691959
8.383531
3.560241
14.781517
10.654165
17.450728
17.169794
17.719130
1.838953
3.149582
16.869188
18.451092
-0.241911
18.018475
2.810279
0.596327
14.454867
10.185756
16.599766
16.225619
12.777432
4.502278
18.270784
9.417761
5.433353
5.868277
6.301676
18.507458
5.048806
1.421119
6.751756
11.325171
7.187430
14.030460
12.264646
15.954205
18.717769
9.814157
7.669689
18.841241
-0.686160
8.930748
0.170971
8.198883
15.566081
3.842143
2.215917
4.225138
0.999033
3.493672
13.646816
17.330028
17.954113
18.229901
9.457845
16.962595
17.656480
18.492759
15.234584
10.236076
12.010866
3.100770
18.775026
1.806092
19.226990
-0.264163
2.695696
5.707564
14.810656
13.189460
5.307463
6.123155
19.033046
16.745656
0.578920
6.544518
9.919313
6.984361
4.915103
16.333495
10.889216
19.271259
4.524373
7.441039
1.393153
11.568085
4.138970
14.417881
7.929747
19.620896
-0.704093
10.384509
9.561045
12.755395
16.040678
19.588511
3.754503
0.150702
18.420164
3.454741
2.182198
18.134720
18.981479
17.776419
18.749117
3.040078
8.428218
0.977573
15.594211
9.133023
13.953993
17.422298
19.280372
10.007513
19.558732
12.266161
5.960765
5.565149
6.374863
1.777533
5.214398
17.153199
20.010882
-0.278025
4.826918
19.809043
6.792515
15.227472
7.217986
0.562315
13.502238
16.745782
9.647395
20.043982
4.457693
7.666348
10.405632
4.082151
2.547683
1.374029
14.740206
20.255088
11.788275
8.104964
16.422397
10.078855
20.408277
-0.713439
3.723017
12.997680
3.337402
8.607902
19.763049
18.587405
19.540807
11.057413
18.956560
19.276908
18.251216
0.139435
2.157490
20.040794
15.970879
0.969531
17.980895
2.949695
14.298546
6.201893
20.321433
10.515253
5.822589
9.782148
17.584452
6.579145
5.093332
5.451340
6.983625
9.301630
1.761548
12.494437
4.387804
4.764721
20.584911
7.406422
20.802236
-0.283058
15.569838
13.765392
20.785284
0.557139
10.133481
7.848693
4.035511
3.654649
17.497637
2.530774
1.369220
15.062097
8.316541
21.031610
19.402638
20.270687
20.037889
11.954596
19.785074
9.769475
16.909754
19.100832
18.685315
20.567002
8.815251
3.290622
10.497544
21.202430
-0.713797
13.253657
18.288631
0.141664
20.841195
2.147102
16.437110
6.052879
6.415251
2.913122
0.965222
14.579140
5.702242
5.348566
6.789064
10.171215
21.116518
4.998144
11.156650
7.161918
4.648678
21.303849
4.284583
7.575850
1.760565
12.776904
10.518036
15.986772
21.599849
-0.278887
3.951645
14.010672
21.569148
7.997218
9.853970
0.560347
20.211748
8.462872
3.628358
20.851823
19.533444
19.942814
21.076437
20.613070
2.522370
12.200818
1.369931
18.602901
15.444255
10.193061
3.253048
18.018911
19.188692
21.375054
9.323745
17.337946
13.446868
21.642620
22.002050
-0.704883
6.244238
5.905971
0.151096
6.591461
5.575814
2.148000
21.843973
5.253622
9.827607
10.586573
16.818334
6.949770
7.324213
0.972648
4.925767
22.089575
7.721257
2.888330
14.986815
4.590738
10.198616
1.766146
3.928704
20.701140
8.138812
4.264115
21.058703
-0.265314
22.419004
21.380281
11.180455
20.417179
8.597148
21.872577
21.663279
20.016922
0.569168
3.574535
16.412808
12.063171
22.480132
9.886120
22.147406
19.651724
2.528577
10.617925
15.750725
13.318699
1.378027
19.192188
6.414798
6.097549
18.589521
22.418921
5.800582
5.491725
10.189117
6.735334
7.074943
3.233119
22.805614
-0.686528
22.632315
5.184115
18.070611
14.286920
0.168689
9.452730
2.158493
4.873968
0.990988
9.822566
7.804974
4.563343
21.563097
8.822215
10.967179
7.462172
11.821875
22.986130
10.544679
21.299399
21.919316
11.378587
22.403700
22.185572
3.891030
1.782939
17.521822
12.682294
12.201573
4.246054
2.888787
10.163158
20.994974
23.207778
-0.242212
22.694668
20.582149
3.542913
13.173852
15.848740
0.596670
8.203986
9.665105
13.562101
22.962291
20.193027
14.080526
6.270026
2.542840
6.563197
5.988313
1.403298
9.325008
5.705185
23.181247
6.861260
5.419827
19.814204
11.626632
23.458203
11.227864
8.990529
12.039460
7.176206
10.843873
14.531041
12.469636
5.132985
19.236404
10.474683
23.428642
12.912954
10.121113
23.611803
-0.658665
15.095884
0.196384
4.851332
2.178298
13.371502
9.781938
8.737210
16.968165
3.259843
7.713969
13.847035
23.678187
1.020387
9.456362
4.551860
22.184286
8.432409
18.694232
22.477504
22.775788
23.016293
14.337549
15.669973
21.909367
23.234588
9.147330
4.250146
1.811673
21.543575
2.924789
14.844915
23.516930
8.202863
8.853348
16.120726
24.015252
-0.209556
21.203681
3.922048
6.143717
23.775042
6.399742
15.364137
0.626903
20.812930
8.574417
5.632656
5.890851
7.934654
16.719964
7.334930
2.570617
23.975724
5.373812
1.440189
6.680643
18.273829
15.898446
20.388597
8.310160
3.609023
5.118865
24.207646
19.815079
7.720937
17.236207
4.844056
16.449014
24.419125
-0.621354
24.381213
8.061664
2.212999
0.234898
23.573630
3.303232
23.070035
23.352273
7.500874
4.564694
23.842321
1.058099
17.880060
24.041794
22.830717
7.006722
22.487322
7.828676
17.013449
4.268762
24.300891
22.186194
2.962202
1.854432
7.329586
21.794442
6.278497
6.057318
6.500893
7.611830
5.833732
17.594016
19.505143
18.420759
24.560045
24.823203
-0.167493
3.964022
21.423579
5.601162
0.671776
20.861437
5.368193
2.613871
7.133279
24.811056
7.411454
18.187148
5.117042
1.481457
19.097550
3.665655
25.007872
23.914172
4.855440
24.208114
24.601865
24.429795
23.397272
7.227981
25.226045
-0.574789
23.732040
6.691647
6.992198
2.263359
25.232757
0.281410
18.796448
3.339580
4.587386
24.869063
23.157838
19.662468
1.106458
22.776433
20.730435
25.119023
4.305008
7.060714
5.996416
6.832310
6.186914
6.368555
3.005586
19.417682
5.800796
1.903427
25.315401
22.488044
21.970805
5.589888
20.367975
4.012759
25.629894
-0.116272
5.376991
6.910400
0.726545
25.619557
2.669787
6.720046
5.139496
20.053607
24.534798
1.535748
6.494703
3.710208
24.806147
25.797809
4.902118
25.253996
24.336276
25.078558
20.955281
25.433494
6.775963
24.112115
23.747736
25.962138
26.030982
-0.519274
2.319761
6.597784
21.999494
4.642965
3.396288
0.337052
25.690690
20.700140
23.490109
1.159239
23.051577
5.978023
25.929224
4.367538
5.805593
6.659256
6.161445
21.685780
26.102056
3.072570
5.620475
1.960401
6.517748
21.359682
6.356942
5.417689
4.083281
26.433928
-0.056245
26.377166
0.786093
6.559629
5.200051
25.438212
25.841210
2.734177
25.242465
25.679102
6.445115
22.292120
26.535331
3.781417
26.071151
1.599836
25.049769
26.224868
4.966067
24.759372
22.027979
24.433230
26.736838
26.457797
6.478346
4.714991
2.386110
26.832255
-0.455241
3.464976
24.114180
0.402972
6.127198
5.994078
26.699400
23.598146
23.043199
1.231714
6.387887
5.850123
4.444040
22.707163
26.885305
5.680343
6.282167
3.145674
6.415718
26.517496
2.030150
5.494585
4.163773
27.126055
0.012075
26.135215
25.913198
26.362340
5.286778
6.344620
0.856054
27.289486
23.711284
26.875647
25.748452
27.304259
2.808858
23.392646
25.472398
27.040387
3.862452
26.708708
5.057980
6.370730
1.676384
25.206567
27.265251
6.164651
4.808296
2.466400
3.548751
6.062041
6.327209
27.628726
-0.383238
0.475545
27.495562
24.433887
5.928892
6.279992
24.920505
24.088223
6.343871
4.544106
1.306135
5.778333
27.804387
27.369483
3.230610
5.600789
2.116919
26.809341
4.260158
26.607428
27.027790
27.208396
27.614216
6.332391
5.396028
26.473721
28.027284
0.088089
25.063222
24.787070
6.336563
27.981813
26.252938
0.936839
28.069142
2.893113
27.844647
3.960841
5.165869
1.758783
6.253928
6.351829
6.166088
27.784720
4.923797
28.224949
3.652575
6.348738
2.559276
25.491054
6.052981
28.418813
-0.303912
6.346939
0.556441
25.840956
26.195025
5.902071
4.655233
1.392644
27.630027
28.539694
28.196464
27.536909
3.328093
5.731279
28.461285
27.413771
27.925396
2.206050
4.370982
6.397547
6.381008
28.425636
5.525676
27.312178
26.195121
27.111118
28.814089
0.171105
26.474056
28.758856
1.021941
2.997157
5.297306
4.075629
28.733529
6.389770
28.413049
1.851262
6.313211
6.456811
28.614652
5.053237
6.433398
29.098767
6.206135
29.013662
3.760442
26.900430
2.657624
29.201519
-0.218013
6.057112
0.643230
28.397851
27.251429
4.782650
28.523170
28.323518
1.484814
27.620037
6.529176
28.746339
28.205310
29.303462
5.886672
3.441112
28.073964
29.249474
6.506095
29.113951
4.500884
2.306092
6.550544
5.680188
27.601592
29.367733
0.260311
29.596183
29.528045
27.880064
29.623912
5.453554
1.110405
3.105042
6.573956
4.198315
29.328254
6.506491
1.943243
6.598238
29.298389
6.640948
5.200125
6.393297
29.826820
29.785376
29.325442
3.885168
29.251345
2.754635
28.299061
29.184580
6.249563
29.975833
-0.126371
29.123917
0.729546
4.930662
29.793387
29.085898
28.646547
6.068142
1.571467
30.070060
6.771092
6.712266
3.555908
29.091480
30.028795
4.638179
29.017154
5.860624
2.402315
6.782157
30.238183
28.987818
0.354843
30.291897
6.811885
5.622108
30.370237
30.102261
3.216289
4.328887
1.203370
30.048686
29.261572
6.734875
30.047016
30.322227
29.992049
6.847302
2.039998
5.367062
6.621378
6.911487
30.564787
30.023343
29.963975
30.561056
4.013051
6.463682
2.868783
29.970362
29.668912
5.080016
30.739707
-0.029882
0.833289
6.270521
30.030932
30.602613
1.679206
30.816819
7.076573
7.004916
30.008536
3.676989
30.801514
6.052742
4.791702
2.511123
7.101159
30.338255
30.863714
5.805438
30.377584
31.043303
30.777789
0.453773
31.122392
7.004152
30.767280
3.328201
4.477235
31.170873
1.308520
30.773817
7.179118
30.758475
30.978254
6.873537
7.184289
31.109170
5.533080
2.151559
30.678377
30.791209
7.270948
31.313503
6.697848
30.832900
31.313462
4.159078
2.986156
5.256275
30.994581
31.493746
0.070500
6.495838
0.936445
31.381428
31.071679
1.779635
31.566974
7.386633
4.943660
6.261198
31.558951
2.627174
7.361156
31.392874
7.505693
31.497482
7.543666
3.742487
31.818657
5.997702
31.509979
31.650493
31.788437
7.297467
31.637311
0.556111
31.522746
31.869205
4.637179
31.549910
1.413650
31.650141
7.148675
5.723940
31.637506
7.611120
31.884947
2.258301
31.716881
32.028475
7.697396
6.956187
31.962474
4.240930
31.909645
3.453515
3.032632
32.070441
7.696501
5.420969
6.729903
31.974682
32.236538
0.173781
32.260189
1.040963
32.152068
32.292228
1.898459
32.328919
6.476121
5.096765
32.162415
7.860121
32.309722
7.745554
2.752416
32.244751
7.979382
32.626806
6.204829
32.289824
7.614769
4.017797
32.516568
32.561938
32.424862
32.867640
0.660851
32.608515
4.782666
32.391230
32.417149
7.436458
32.474393
1.526448
8.116530
5.904732
32.605874
32.623409
3.282718
2.384398
32.869123
8.130910
7.219408
32.759070
32.801792
4.521907
8.234980
32.797714
8.141470
33.174908
5.588881
32.738686
6.970769
32.968081
0.278945
33.451145
1.146472
32.882975
3.791255
33.015148
8.101514
33.022112
6.705830
2.009504
5.238574
8.427428
2.936800
32.988228
33.102955
33.076884
6.407985
33.101992
8.009973
33.782236
33.184670
4.294471
8.570312
33.267850
33.238511
33.310325
34.015940
0.766962
33.333791
33.223059
33.278818
33.492131
1.634487
6.094113
4.845164
33.696461
7.874330
3.550873
2.498385
33.447175
8.703922
33.378482
8.746823
33.970855
33.416745
5.780847
7.223690
33.505076
34.301122
8.870349
7.703362
34.555247
33.687515
0.384963
8.740756
33.657474
1.252887
4.065068
33.726116
33.722179
2.124387
6.960476
33.779483
9.092197
5.431562
33.840191
33.927357
8.666969
6.615790
33.842528
3.151485
33.885696
34.134361
33.881911
33.897634
33.939885
33.967264
34.828016
4.584855
35.071307
34.357112
0.873408
34.047293
9.258508
8.527526
6.295214
1.742621
34.648074
8.244951
3.828372
34.157173
2.617811
34.167454
9.461024
9.387303
34.182509
34.996172
5.109603
5.948153
34.253001
34.240780
35.563704
34.408392
35.359201
8.050070
34.363016
34.383795
34.395018
0.490803
1.359444
7.153826
4.353045
9.639162
34.399773
34.428979
2.235530
7.670616
34.605868
34.736203
34.543514
3.062043
6.832783
9.473583
5.662471
9.859399
3.577420
34.587425
36.032617
34.649478
34.636273
34.614063
34.621369
4.870253
35.921074
0.979158
34.748917
9.952063
9.346838
1.851611
35.350993
35.794268
8.575815
34.815405
4.104048
34.807419
2.730762
9.982436
34.908973
6.109413
34.926655
6.583483
35.296872
34.925499
36.475768
10.274923
5.404610
34.936130
35.830493
34.969232
35.147323
8.405817
7.699657
36.394546
10.356052
10.057699
35.075399
35.090352
0.595455
35.068073
1.469306
4.629913
9.202958
35.101069
9.978133
2.345641
35.898303
36.339768
10.409906
35.200100
7.272971
35.333775
36.888641
9.940417
3.232111
5.948273
35.525637
10.718850
3.865129
35.278569
36.312579
10.436757
35.938474
35.321556
35.307170
5.164753
35.329098
35.917751
1.083206
35.437989
8.240647
36.309189
10.441400
9.951124
1.955705
8.976598
10.869459
36.798086
35.503305
35.515865
4.397246
35.511497
37.284659
2.843182
35.556233
9.797603
35.575079
36.329795
10.420766
37.107391
35.595886
6.505497
36.057874
36.767365
5.673745
11.188015
35.739218
8.831009
35.832388
7.910843
36.695123
36.087558
35.753083
7.125538
10.865852
10.376392
36.373452
35.773469
0.697940
11.073345
4.933965
35.754079
1.570064
35.782682
9.779091
37.651671
35.865419
2.452402
36.705866
11.419884
8.667985
36.014920
37.485833
10.309063
36.439971
9.570780
10.915716
4.220679
35.938729
6.255338
35.979096
36.274664
11.679845
35.976395
3.239396
35.985891
5.406949
37.357933
7.701602
10.884937
36.810563
1.176425
37.995568
10.221496
36.528242
36.114879
9.426641
36.340903
8.485016
36.131090
2.060697
36.180838
4.685179
10.768277
36.170448
37.872585
6.905013
36.189833
3.809874
36.328817
36.869239
11.979971
11.421653
36.259366
10.112509
36.637526
5.961922
12.195063
9.262534
36.495543
36.357437
38.313480