# vtk DataFile Version 1.0.
RESULT
ASCII

DATASET UNSTRUCTURED_GRID

POINTS 4787 float
      0.00000000E+00      0.00000000E+00      0.00000000E+00
      0.00000000E+00      1.49253731E-02      0.00000000E+00
      1.49253731E-02      0.00000000E+00      0.00000000E+00
      1.05549673E-02      1.05549673E-02      0.00000000E+00
      2.47423625E-02      1.02471296E-02      0.00000000E+00
      1.02471296E-02      2.47423625E-02      0.00000000E+00
      0.00000000E+00      2.98507463E-02      0.00000000E+00
      2.98507463E-02      0.00000000E+00      0.00000000E+00
      2.11099346E-02      2.11099346E-02      0.00000000E+00
      3.58486467E-02      1.41219350E-02      0.00000000E+00
      1.48241638E-02      3.57872633E-02      0.00000000E+00
      0.00000000E+00      4.47761194E-02      0.00000000E+00
      4.47761194E-02      0.00000000E+00      0.00000000E+00
      3.16649020E-02      3.16649020E-02      0.00000000E+00
      4.59162051E-02      2.69887254E-02      0.00000000E+00
      1.29903811E-02      5.22388060E-02      0.00000000E+00
      2.77567991E-02      4.61279722E-02      0.00000000E+00
      5.32982094E-02      1.15973305E-02      0.00000000E+00
      0.00000000E+00      5.97014925E-02      0.00000000E+00
      5.97014925E-02      0.00000000E+00      0.00000000E+00
      4.22198693E-02      4.22198693E-02      0.00000000E+00
      2.52842778E-02      5.86589411E-02      0.00000000E+00
      5.23083731E-02      3.75075176E-02      0.00000000E+00
      6.01572304E-02      2.48207978E-02      0.00000000E+00
      1.29903811E-02      6.71641791E-02      0.00000000E+00
      3.83117664E-02      5.66829395E-02      0.00000000E+00
      6.78719656E-02      1.20775990E-02      0.00000000E+00
      0.00000000E+00      7.46268657E-02      0.00000000E+00
      7.46268657E-02      0.00000000E+00      0.00000000E+00
      5.27748366E-02      5.27748366E-02      0.00000000E+00
      3.05535662E-02      7.12974191E-02      0.00000000E+00
      6.62158210E-02      4.30567754E-02      0.00000000E+00
      7.49627439E-02      2.52163558E-02      0.00000000E+00
      1.29903811E-02      8.20895522E-02      0.00000000E+00
      4.88667337E-02      6.72379068E-02      0.00000000E+00
      8.25870234E-02      1.23798286E-02      0.00000000E+00
      0.00000000E+00      8.95522388E-02      0.00000000E+00
      8.95522388E-02      0.00000000E+00      0.00000000E+00
      6.33298039E-02      6.33298039E-02      0.00000000E+00
      8.21848848E-02      3.83264153E-02      0.00000000E+00
      2.80876964E-02      8.87749999E-02      0.00000000E+00
      4.49586309E-02      8.17009770E-02      0.00000000E+00
      8.98312662E-02      2.54591767E-02      0.00000000E+00
      7.79777123E-02      5.59980730E-02      0.00000000E+00
      1.29903811E-02      9.70149254E-02      0.00000000E+00
      5.94217011E-02      7.77928741E-02      0.00000000E+00
      9.73911191E-02      1.25596796E-02      0.00000000E+00
      9.06642336E-02      5.08591285E-02      0.00000000E+00
      0.00000000E+00      1.04477612E-01      0.00000000E+00
      1.04477612E-01      0.00000000E+00      0.00000000E+00
      7.38847713E-02      7.38847713E-02      0.00000000E+00
      9.71559577E-02      3.85201646E-02      0.00000000E+00
      4.10767383E-02      9.61394679E-02      0.00000000E+00
      5.54770455E-02      9.21182414E-02      0.00000000E+00
      2.59564811E-02      1.04407658E-01      0.00000000E+00
      1.04728976E-01      2.56015773E-02      0.00000000E+00
      1.29903811E-02      1.11940299E-01      0.00000000E+00
      6.99766684E-02      8.83478415E-02      0.00000000E+00
      1.12248112E-01      1.26633453E-02      0.00000000E+00
      9.15867593E-02      6.65315435E-02      0.00000000E+00
      1.04600692E-01      5.14958179E-02      0.00000000E+00
      5.15421786E-02      1.06588230E-01      0.00000000E+00
      3.89363705E-02      1.11860939E-01      0.00000000E+00
      1.12114022E-01      3.86324224E-02      0.00000000E+00
      0.00000000E+00      1.19402985E-01      0.00000000E+00
      1.19402985E-01      0.00000000E+00      0.00000000E+00
      8.44397386E-02      8.44397386E-02      0.00000000E+00
      6.60369636E-02      1.02745711E-01      0.00000000E+00
      2.59807621E-02      1.19402985E-01      0.00000000E+00
      1.19640740E-01      2.56828916E-02      0.00000000E+00
      1.29903811E-02      1.26865672E-01      0.00000000E+00
      8.05316357E-02      9.89028088E-02      0.00000000E+00
      9.89028088E-02      8.05316357E-02      0.00000000E+00
      1.27135513E-01      1.27218767E-02      0.00000000E+00
      1.10167760E-01      6.61256106E-02      0.00000000E+00
      6.15552678E-02      1.14438885E-01      0.00000000E+00
      1.19583719E-01      5.16760855E-02      0.00000000E+00
      5.02520052E-02      1.21208846E-01      0.00000000E+00
      3.89589853E-02      1.26851927E-01      0.00000000E+00
      1.27060341E-01      3.86960215E-02      0.00000000E+00
      1.34328358E-01      0.00000000E+00      0.00000000E+00
      0.00000000E+00      1.34328358E-01      0.00000000E+00
      9.49947059E-02      9.49947059E-02      0.00000000E+00
      2.59564811E-02      1.34258404E-01      0.00000000E+00
      7.66235328E-02      1.13365879E-01      0.00000000E+00
      1.34559388E-01      2.57285107E-02      0.00000000E+00
      1.07774444E-01      9.29542667E-02      0.00000000E+00
      1.26920291E-01      6.44648326E-02      0.00000000E+00
      1.29903811E-02      1.41791045E-01      0.00000000E+00
      9.10866030E-02      1.09457776E-01      0.00000000E+00
      1.42040033E-01      1.27544447E-02      0.00000000E+00
      6.33216589E-02      1.28285759E-01      0.00000000E+00
      1.34562852E-01      5.15894343E-02      0.00000000E+00
      5.04121477E-02      1.35650748E-01      0.00000000E+00
      1.19412287E-01      8.20537481E-02      0.00000000E+00
      1.41725753E-01      3.85043046E-02      0.00000000E+00
      3.88873655E-02      1.41842762E-01      0.00000000E+00
      0.00000000E+00      1.49253731E-01      0.00000000E+00
      1.49253731E-01      0.00000000E+00      0.00000000E+00
      1.05549673E-01      1.05549673E-01      0.00000000E+00
      2.59807621E-02      1.49253731E-01      0.00000000E+00
      8.72437008E-02      1.23952448E-01      0.00000000E+00
      1.49481433E-01      2.57537776E-02      0.00000000E+00
      1.34331549E-01      7.74982283E-02      0.00000000E+00
      7.64443457E-02      1.35186079E-01      0.00000000E+00
      1.41892837E-01      6.45512951E-02      0.00000000E+00
      6.35908799E-02      1.42575783E-01      0.00000000E+00
      1.29903811E-02      1.56716418E-01      0.00000000E+00
      1.20012743E-01      1.01641570E-01      0.00000000E+00
      1.01641570E-01      1.20012743E-01      0.00000000E+00
      1.56954054E-01      1.27723671E-02      0.00000000E+00
      1.49121384E-01      5.15325919E-02      0.00000000E+00
      5.07979939E-02      1.50190058E-01      0.00000000E+00
      1.56649583E-01      3.85804553E-02      0.00000000E+00
      3.88873655E-02      1.56664701E-01      0.00000000E+00
      0.00000000E+00      1.64179104E-01      0.00000000E+00
      1.64179104E-01      0.00000000E+00      0.00000000E+00
      1.16104641E-01      1.16104641E-01      0.00000000E+00
      1.34276734E-01      9.46188098E-02      0.00000000E+00
      9.84536426E-02      1.33318984E-01      0.00000000E+00
      2.59564811E-02      1.64249058E-01      0.00000000E+00
      1.64405159E-01      2.57676338E-02      0.00000000E+00
      1.50259216E-01      7.49903445E-02      0.00000000E+00
      8.89904695E-02      1.42496656E-01      0.00000000E+00
      7.64922591E-02      1.50142767E-01      0.00000000E+00
      1.56864252E-01      6.43479194E-02      0.00000000E+00
      6.39109299E-02      1.57294627E-01      0.00000000E+00
      1.64111382E-01      5.12225518E-02      0.00000000E+00
      1.29903811E-02      1.71641791E-01      0.00000000E+00
      1.12196538E-01      1.30567711E-01      0.00000000E+00
      1.30567711E-01      1.12196538E-01      0.00000000E+00
      1.71873289E-01      1.27821439E-02      0.00000000E+00
      5.10468512E-02      1.64840453E-01      0.00000000E+00
      1.71625028E-01      3.88115156E-02      0.00000000E+00
      3.89589853E-02      1.71655535E-01      0.00000000E+00
      1.53655655E-01      9.13280520E-02      0.00000000E+00
      1.79104478E-01      0.00000000E+00      0.00000000E+00
      0.00000000E+00      1.79104478E-01      0.00000000E+00
      1.26659608E-01      1.26659608E-01      0.00000000E+00
      1.04234197E-01      1.46611902E-01      0.00000000E+00
      1.79036149E-01      2.58753393E-02      0.00000000E+00
      2.59807621E-02      1.79104478E-01      0.00000000E+00
      8.95466502E-02      1.57464673E-01      0.00000000E+00
      1.64551788E-01      7.72262279E-02      0.00000000E+00
      7.66212569E-02      1.65011967E-01      0.00000000E+00
      1.47579902E-01      1.07558536E-01      0.00000000E+00
      6.42017929E-02      1.71905871E-01      0.00000000E+00
      1.72582542E-01      6.47234813E-02      0.00000000E+00
      1.79122804E-01      5.17966110E-02      0.00000000E+00
      5.13827302E-02      1.79563824E-01      0.00000000E+00
      1.29903811E-02      1.86567164E-01      0.00000000E+00
      1.86567164E-01      1.29903811E-02      0.00000000E+00
      1.22751505E-01      1.41122678E-01      0.00000000E+00
      1.42660247E-01      1.21722171E-01      0.00000000E+00
      1.86602252E-01      3.88009508E-02      0.00000000E+00
      3.89363705E-02      1.86646524E-01      0.00000000E+00
      1.68613879E-01      9.03094460E-02      0.00000000E+00
      1.62037423E-01      1.03759142E-01      0.00000000E+00
      1.02409034E-01      1.64477038E-01      0.00000000E+00
      1.94029851E-01      0.00000000E+00      0.00000000E+00
      0.00000000E+00      1.94029851E-01      0.00000000E+00
      1.37214575E-01      1.37214575E-01      0.00000000E+00
[...]
POINT_DATA 4787
SCALARS Potential float
LOOKUP_TABLE default
-0.000000
0.009466
0.014819
0.013018
0.021427
0.014406
0.009459
0.024278
0.019908
0.027911
0.017141
0.009779
0.032882
0.025975
0.033719
0.016483
0.024116
0.037733
0.009928
0.041313
0.031823
0.022892
0.037297
0.041610
0.016526
0.029765
0.045902
0.009897
0.049692
0.037533
0.025597
0.044927
0.049847
0.016407
0.035324
0.054151
0.009717
0.058085
0.043168
0.053800
0.024085
0.033049
0.058168
0.051280
0.016156
0.040833
0.062489
0.058380
0.009408
0.066525
0.048735
0.062170
0.030711
0.038419
0.022636
0.066566
0.015783
0.046288
0.070917
0.058611
0.066169
0.035936
0.029160
0.070611
0.008984
0.075031
0.054255
0.043762
0.022204
0.075046
0.015302
0.051696
0.062322
0.079438
0.068992
0.040981
0.074633
0.034765
0.028654
0.079130
0.083619
0.008456
0.059722
0.021651
0.049079
0.083614
0.066853
0.078508
0.014722
0.057056
0.088056
0.041376
0.083193
0.034272
0.073735
0.087583
0.028005
0.007836
0.092299
0.065142
0.021025
0.054363
0.092280
0.082340
0.048056
0.087080
0.040884
0.014055
0.073340
0.062371
0.096778
0.091609
0.033811
0.096281
0.027314
0.007132
0.101081
0.070518
0.081661
0.059990
0.020291
0.101050
0.091573
0.054413
0.047335
0.095764
0.040314
0.100386
0.013310
0.067640
0.078775
0.105609
0.033193
0.105114
0.026575
0.092885
0.109973
0.006355
0.075841
0.062408
0.109755
0.019515
0.053880
0.099803
0.046580
0.088635
0.039656
0.104980
0.109267
0.032544
0.012496
0.114418
0.072852
0.085086
0.114072
0.025717
0.101620
0.097133
0.060348
0.118985
0.005514
0.081112
0.053041
0.067796
0.108663
0.045737
0.118785
0.018643
0.093610
0.038902
0.031755
0.011623
0.123488
0.078007
0.089980
0.116059
0.120307
0.105836
0.024576
0.123128
0.101436
0.059538
0.111281
0.066954
0.074476
0.052479
0.116183
0.128122
0.004618
0.086321
0.044944
0.017741
0.127952
0.037648
0.098337
0.030554
0.010700
0.132689
0.083101
0.095257
0.109064
0.023414
0.058512
0.072233
0.124387
0.127995
0.065598
0.120516
0.106901
0.131411
0.115838
0.134639
0.137391
0.003679
0.091464
0.016794
0.079839
0.053064
0.103873
0.044257
0.029466
0.141270
0.037178
0.009738
0.088123
0.099947
0.115691
0.133490
0.137049
0.129892
0.063095
0.022846
0.111310
0.140664
0.073208
0.126328
0.144496
0.146803
0.002705
0.096530
0.123098
0.015787
0.108046
0.027966
0.050102
0.083091
0.042563
0.119558
0.059544
0.034842
0.142755
0.139127
0.008747
0.151504
0.105005
0.135243
0.146661
0.068933
0.021853
0.150360
0.116625
0.132121
0.092758
0.153951
0.156359
0.001708
0.101508
0.128310
0.014783
0.078230
0.113703
0.047848
0.055433
0.040306
0.030819
0.125351
0.148051
0.144286
0.152203
0.065010
0.141127
0.156051
0.109691
0.086339
0.007738
0.161134
0.022512
0.159829
0.099213
0.137314
0.122601
0.074641
0.163564
0.094613
0.166069
0.000698
0.106402
0.134378
0.052971
0.045443
0.118346
0.060623
0.013764
0.082693
0.038358
0.153411
0.157595
0.129992
0.150529
0.029879
0.146529
0.070925
0.022959
0.102606
0.114994
0.090849
0.006722
0.170923
0.163323
0.167011
0.169566
0.143153
0.127213
0.078878
0.138666
0.050543
0.058114
0.065628
0.099043
0.162710
0.043560
0.111086
0.175936
-0.000312
0.122581
0.036153
0.175623
0.012717
0.086895
0.160126
0.155615
0.135770
0.028464
0.152599
0.094914
0.075342
0.119668
0.107093
0.021209
0.005881
0.131375
0.180868
0.147932
0.174888
0.178389
0.055977
0.083267
0.063426
0.172377
0.048628
0.144599
0.070135
0.041188
0.169360
0.103145
0.182265
0.165160
0.115551
0.012748
0.034404
0.185965
-0.001312
0.128397
0.091308
0.140429
0.161735
0.186610
0.026631
0.157221
0.098763
0.124126
0.111357
0.077572
0.019668
0.136663
0.004717
0.190977
0.153638
0.061266
0.053881
0.068695
0.046590
0.182314
0.186062
0.087443
0.179308
0.174893
0.189447
0.149714
0.012462
0.039442
0.107011
0.119792
0.032164
0.192987
0.171545
0.132854
0.196159
-0.002288
0.166875
0.095428
0.145118
0.196711
0.025076
0.163183
0.115392
0.128360
0.103519
0.074668
0.083747
0.059695
0.017992
0.066220
0.051743
0.159036
0.141755
0.192289
0.003752
0.201256
0.189007
0.044482
0.184835
0.196237
0.181171
0.199465
0.036983
0.091574
0.176628
0.123801
0.010916
0.110977
0.137087
0.030700
0.203210
0.172746
0.154128
0.206525
-0.003229
0.023610
0.080028
0.206886
0.167917
0.100252
0.119197
0.057100
0.064440
0.049485
0.087733
0.071863
0.202535
0.194955
0.199303
0.016633
0.134565
0.150873
0.042317
0.191371
0.206593
0.211706
0.002829
0.186714
0.209671
0.163682
0.035276
0.108436
0.127589
0.182754
0.009554
0.029080
0.213263
0.146591
0.177885
0.159285
0.217062
-0.004121
0.022081
0.083941
0.217263
0.061803
0.054616
0.097245
0.124371
0.134930
0.173219
0.117680
0.068978
0.205293
0.209453
0.047166
0.212883
0.201471
0.196916
0.076372
0.091579
0.040655
0.216798
0.155873
0.015488
0.143947
0.192802
0.168935
0.220068
0.222330
0.001961
0.131137
0.105137
0.033716
0.187847
0.026515
0.008162
0.150967
0.183518
0.165121
0.072435
0.113160
0.126098
0.139682
0.065903
0.227772
-0.004954
0.059401
0.020862
0.052381
0.227859
0.215828
0.178900
0.100686
0.212068
0.220099
0.207441
0.045518
0.223646
0.203267
0.160316
0.227124
0.038511
0.134446
0.198293
0.148445
0.121240
0.230494
0.087180
0.174192
0.094693
0.031209
0.233127
0.001160
0.108486
0.193864
0.078252
0.015657
0.188224
0.024330
0.156157
0.142836
0.129336
0.070851
0.056978
0.063966
0.170011
0.116437
0.050783
0.226552
0.222630
0.218096
0.238652
-0.005715
0.230717
0.007211
0.184319
0.213828
0.043428
0.234383
0.208850
0.239330
0.137512
0.036525
0.101608
0.238089
0.124296
0.151603
0.165291
0.092385
0.085374
0.204263
0.029779
0.179975
0.198739
0.000433
0.244738
0.132366
0.145704
0.013211
0.077356
0.111605
0.061962
0.068702
0.160630
0.055409
0.020586
0.229052
0.233611
0.237518
0.048638
0.224189
0.175207
0.241687
0.219787
0.140332
0.249692
-0.006393
0.245207
0.196057
0.006526
0.042049
0.127119
0.154483
0.190351
0.215140
0.121468
0.084269
0.035202
0.090506
0.249035
0.096913
0.104656
0.169928
0.209551
0.251943
0.148321
0.135150
0.185460
0.255216
-0.000203
0.012860
0.066497
0.163536
0.059810
0.073175
0.079958
0.026863
0.053065
0.235298
0.206776
0.244708
0.240544
0.248586
0.142901
0.047352
0.230906
0.252640
0.157126
0.129689
0.226175
0.114855
0.256240
0.040028
0.179831
0.260895
-0.006976
0.088115
0.202209
0.005919
0.094842
0.101769
0.259974
0.018943
0.221812
0.150671
0.137689
0.172955
0.107982
0.196113
0.263328
0.124337
0.216611
0.032499
0.064378
0.057988
0.266497
-0.000738
0.166199
0.145222
0.251532
0.255593
0.132034
0.247285
0.051875
0.011986
0.211889
0.259875
0.072227
0.078906
0.045358
0.190101
0.242882
0.263902
0.238759
0.086113
0.233067
0.024260
0.092770
0.267474
0.139977
0.099603
0.039105
0.182924
0.151865
0.105724
0.119992
0.206991
0.272251
-0.007454
0.112896
0.005435
0.272224
0.271186
0.229052
0.175636
0.017898
0.062118
0.200766
0.147290
0.127778
0.055783
0.223196
0.161640
0.263010
0.258819
0.267013
0.030029
0.049646
0.254336
0.277931
-0.001163
0.271478
0.044573
0.011412
0.218325
0.154657
0.250317
0.244736
0.193307
0.069871
0.275242
0.143205
0.083775
0.090266
0.096734
0.278772
0.078037
0.023780
0.103450
0.171650
0.109948
0.211996
0.185660
0.240688
0.281909
0.149118
0.117141
0.283751
-0.007816
0.135946
0.005046
0.125034
0.234900
0.060018
0.035692
0.065743
0.017465
0.054811
0.206275
0.261210
0.270519
0.274632
0.143808
0.255729
0.266079
0.278553
0.229956
0.155412
0.181878
0.048941
0.282763
0.029565
0.289505
-0.001468
0.042883
0.087886
0.223634
0.199455
0.081915
0.094087
0.286612
0.252494
0.011180
0.100373
0.150691
0.106933
0.076061
0.246347
0.165153
0.290165
0.070227
0.113743
0.023389
0.175277
0.064475
0.217776
0.121032
0.295380
-0.008056
0.157630
0.145352
0.192983
0.241980
0.294897
0.058732
0.004772
0.277471
0.054254
0.035216
0.273213
0.285843
0.267869
0.282377
0.048054
0.128466
0.017173
0.235321
0.138973
0.210859
0.262587
0.290301
0.152011
0.294453
0.185689
0.091682
0.085780
0.097858
0.029166
0.080548
0.258574
0.301197
-0.001646
0.074765
0.298187
0.104087
0.229852
0.110431
0.010962
0.204123
0.252497
0.146645
0.301691
0.069256
0.117115
0.157949
0.063648
0.040706
0.023133
0.222586
0.304840
0.178565
0.123655
0.247675
0.153079
0.307125
-0.008164
0.058289
0.196600
0.052525
0.131153
0.297501
0.279966
0.294186
0.167668
0.285472
0.290250
0.274952
0.004635
0.034876
0.301644
0.240941
0.017085
0.270920
0.046733
0.216000
0.095296
0.305830
0.159587
0.089641
0.148658
0.265007
0.100921
0.078764
0.084105
0.106951
0.141497
0.028958
0.189097
0.068234
0.073862
0.309760
0.113253
0.313001
-0.001688
0.234960
0.208050
0.312749
0.010917
0.153897
0.119846
0.062978
0.057289
0.263713
0.040484
0.023094
0.227389
0.126819
0.316423
0.292126
0.305073
0.301601
0.181049
0.297830
0.148473
0.254945
0.287625
0.281427
0.309493
0.134252
0.051855
0.159326
0.318971
-0.008135
0.200420
0.275511
0.004701
0.313583
0.034752
0.247896
0.093095
0.098495
0.046217
0.017054
0.220187
0.087868
0.082594
0.104067
0.154463
0.317689
0.077368
0.169153
0.109623
0.072154
0.320484
0.066719
0.115790
0.028977
0.193312
0.159634
0.241180
0.324899
-0.001591
0.061753
0.211710
0.324441
0.122070
0.149736
0.011000
0.304195
0.129008
0.056927
0.313742
0.294078
0.300184
0.317092
0.310181
0.040392
0.184723
0.023139
0.280199
0.233090
0.154792
0.051322
0.271489
0.288936
0.321546
0.141836
0.261333
0.203303
0.325537
0.330898
-0.007966
0.095966
0.090926
0.004879
0.101139
0.086006
0.034801
0.328540
0.081203
0.149346
0.160658
0.253583
0.106477
0.112054
0.017201
0.076316
0.332203
0.117968
0.045886
0.226269
0.071321
0.154877
0.029097
0.061441
0.311495
0.124188
0.066450
0.316828
-0.001350
0.337117
0.321625
0.169512
0.307260
0.131015
0.328967
0.325846
0.301290
0.011169
0.056154
0.247536
0.182673
0.338029
0.150221
0.333066
0.295843
0.040520
0.161128
0.237662
0.201393
0.023298
0.288989
0.098525
0.093802
0.280001
0.337116
0.089379
0.084778
0.154737
0.103299
0.108355
0.051065
0.342884
-0.007652
0.340299
0.080195
0.272261
0.215832
0.005181
0.143764
0.034994
0.075573
0.017514
0.149275
0.119225
0.070943
0.324352
0.134372
0.166334
0.114123
0.179076
0.345576
0.160037
0.320419
0.329665
0.172467
0.336890
0.333636
0.060911
0.029385
0.264077
0.191905
0.184737
0.066213
0.045934
0.154351
0.315878
0.348882
-0.000964
0.341230
0.309721
0.055716
0.199234
0.239124
0.011621
0.125167
0.146930
0.205024
0.345221
0.303917
0.212755
0.096391
0.040770
0.100754
0.092199
0.023715
0.141863
0.087983
0.348487
0.105189
0.083734
0.298268
0.176165
0.352618
0.170221
0.136881
0.182320
0.109875
0.164497
0.219473
0.188734
0.079462
0.289650
0.158994
0.352177
0.195344
0.153725
0.354909
-0.007193
0.227897
0.005637
0.075267
0.035329
0.202182
0.148671
0.133109
0.255820
0.051507
0.117878
0.209273
0.355899
0.017995
0.143820
0.070805
0.333618
0.128571
0.281564
0.337991
0.342440
0.346027
0.216588
0.236459
0.329517
0.349283
0.139217
0.066310
0.029856
0.324062
0.046511
0.224154
0.353494
0.125154
0.134838
0.243181
0.360927
-0.000432
0.318992
0.061417
0.094533
0.357344
0.098341
0.231898
0.012116
0.313164
0.130685
0.086930
0.090773
0.121164
0.252119
0.112244
0.041225
0.360337
0.083079
0.024309
0.102520
0.275294
0.239866
0.306835
0.126752
0.056753
0.079284
0.363797
0.298281
0.117985
0.259818
0.075192
0.248078
0.366951
-0.006591
0.366385
0.123054
0.035889
0.006257
0.354341
0.052194
0.346830
0.351039
0.114714
0.071032
0.358348
0.018603
0.269421
0.361323
0.343260
0.107371
0.338138
0.119588
0.256496
0.066623
0.365188
0.333647
0.047109
0.030538
0.112169
0.327804
0.096560
0.093274
0.099863
0.116364
0.089951
0.265155
0.293659
0.277485
0.369053
0.372978
0.000243
0.062083
0.322273
0.086492
0.012832
0.313888
0.083028
0.041914
0.109255
0.372797
0.113386
0.274001
0.079291
0.024971
0.287580
0.057639
0.375733
0.359421
0.075397
0.363805
0.369678
0.367111
0.351711
0.110661
0.378987
-0.005847
0.356704
0.102703
0.107162
0.036686
0.379087
0.007000
0.283089
0.052779
0.071408
0.373663
0.348140
0.296006
0.019373
0.342451
0.311935
0.377391
0.067203
0.108179
0.092396
0.104792
0.095225
0.097918
0.047800
0.292355
0.089492
0.031317
0.380320
0.338150
0.330435
0.086358
0.306529
0.062851
0.385010
0.001058
0.083195
0.105951
0.013700
0.384857
0.042795
0.103131
0.079662
0.301840
0.368678
0.025831
0.099796
0.058346
0.372725
0.387515
0.076131
0.379405
0.365717
0.376789
0.315289
0.382082
0.103960
0.362374
0.356939
0.389966
0.390993
-0.004966
0.037576
0.101325
0.330863
0.072276
0.053669
0.007882
0.385918
0.311483
0.353097
0.020211
0.346556
0.092156
0.389476
0.068177
0.089597
0.102234
0.094877
0.326184
0.392054
0.048847
0.086850
0.032217
0.100146
0.321320
0.097774
0.083838
0.063947
0.397003
0.002007
0.396157
0.014642
0.100764
0.080604
0.382154
0.388164
0.043805
0.379234
0.385746
0.099079
0.335228
0.398516
0.059453
0.391594
0.026839
0.376360
0.393886
0.077125
0.372029
0.331288
0.367164
0.401521
0.397360
0.099569
0.073392
0.038617
0.402944
-0.003955
0.054741
0.362405
0.008922
0.094401
0.092431
0.400964
0.354708
0.346431
0.021348
0.098245
0.090299
0.069362
0.341419
0.403736
0.087780
0.096697
0.049987
0.098653
0.398252
0.033311
0.085024
0.065193
0.407327
0.003085
0.392550
0.389239
0.395938
0.081938
0.097620
0.015743
0.409764
0.356396
0.403594
0.386782
0.409985
0.044971
0.351643
0.382664
0.406051
0.060709
0.401104
0.078538
0.098001
0.028038
0.378699
0.409404
0.094995
0.074827
0.039869
0.056041
0.093482
0.097381
0.414824
-0.002821
0.010065
0.412839
0.367174
0.091512
0.096699
0.374432
0.362018
0.097619
0.070900
0.022517
0.089281
0.417445
0.410960
0.051307
0.086649
0.034663
0.402606
0.066678
0.399594
0.405864
0.408558
0.414610
0.097479
0.083609
0.397600
0.420769
0.004280
0.376561
0.372442
0.097531
0.420092
0.394306
0.017009
0.421394
0.046283
0.418047
0.062227
0.080191
0.029327
0.096365
0.097790
0.095072
0.417154
0.076596
0.423718
0.057643
0.097733
0.041313
0.382942
0.093403
0.426609
-0.001573
0.097740
0.011335
0.388161
0.393443
0.091168
0.072606
0.023870
0.414847
0.428412
0.423295
0.413458
0.052816
0.088637
0.427244
0.411622
0.419253
0.036054
0.068382
0.098494
0.098236
0.426713
0.085587
0.410106
0.393444
0.407107
0.432505
0.005585
0.397605
0.431682
0.018344
0.047893
0.082197
0.063993
0.431305
0.098432
0.426527
0.030770
0.097307
0.099400
0.429533
0.078575
0.099039
0.436751
0.095728
0.435483
0.059308
0.403964
0.042841
0.438283
-0.000224
0.093522
0.012697
0.426300
0.409200
0.074557
0.428170
0.425191
0.025312
0.414698
0.100512
0.431498
0.423428
0.439804
0.090998
0.054561
0.421469
0.439001
0.100146
0.436981
0.070372
0.037611
0.100823
0.087936
0.414422
0.440765
0.006986
0.444170
0.443155
0.418576
0.444583
0.084575
0.019733
0.049565
0.101219
0.065878
0.440178
0.100231
0.032210
0.101543
0.439733
0.102192
0.080815
0.098560
0.447610
0.446994
0.440137
0.061227
0.439031
0.044353
0.424826
0.438035
0.096435
0.449832
0.001216
0.437130
0.014056
0.076817
0.447115
0.436563
0.430009
0.093748
0.026674
0.451239
0.104166
0.103267
0.056336
0.436646
0.450625
0.072476
0.435537
0.090674
0.039114
0.104323
0.453745
0.435099
0.008471
0.454548
0.104809
0.087138
0.455715
0.451723
0.051289
0.067884
0.021194
0.450925
0.439182
0.103678
0.450900
0.455003
0.450080
0.105304
0.033725
0.083356
0.102004
0.106273
0.458617
0.450547
0.449661
0.458564
0.063197
0.099672
0.046126
0.449756
0.445258
0.079098
0.461225
0.002733
0.015681
0.096812
0.450658
0.459186
0.028357
0.462377
0.108767
0.107678
0.450323
0.058207
0.462151
0.093587
0.074824
0.040810
0.109127
0.455241
0.463081
0.089923
0.455828
0.465756
0.461801
0.010026
0.466933
0.107735
0.461644
0.053027
0.070159
0.467656
0.022841
0.461742
0.110331
0.461512
0.464791
0.105807
0.110375
0.466741
0.085886
0.035465
0.460314
0.462000
0.111679
0.469784
0.103208
0.462621
0.469787
0.065442
0.047950
0.081784
0.465030
0.472471
0.004313
0.100220
0.017302
0.470803
0.466182
0.029935
0.473566
0.113415
0.077149
0.096746
0.473449
0.042619
0.113083
0.470971
0.115204
0.472537
0.115781
0.059271
0.477317
0.092843
0.472723
0.474818
0.476870
0.112150
0.474616
0.011638
0.472913
0.478072
0.072609
0.473318
0.024493
0.474808
0.109953
0.088788
0.474623
0.116785
0.478313
0.037139
0.475806
0.480448
0.118080
0.107107
0.479466
0.066728
0.478684
0.054993
0.048715
0.481078
0.118094
0.084300
0.103758
0.479650
0.483549
0.005942
0.483906
0.018949
0.482299
0.484383
0.031793
0.484927
0.100001
0.079496
0.482456
0.120519
0.484648
0.118852
0.044567
0.483684
0.122308
0.489374
0.095986
0.484355
0.116923
0.063451
0.487731
0.488404
0.486369
0.492966
0.013292
0.489097
0.074846
0.485867
0.486256
0.114288
0.487106
0.026266
0.124371
0.091543
0.489065
0.489329
0.052514
0.039106
0.492989
0.124577
0.111078
0.491345
0.491986
0.070989
0.126137
0.491926
0.124766
0.497549
0.086866
0.491052
0.107399
0.494459
0.007605
0.501668
0.020617
0.493202
0.060126
0.495162
0.124193
0.495270
0.103479
0.033541
0.081682
0.129018
0.047400
0.494775
0.496481
0.496098
0.099072
0.496470
0.122854
0.506606
0.497702
0.067652
0.131158
0.498932
0.498499
0.499574
0.510091
0.014972
0.499913
0.498277
0.499106
0.502283
0.027973
0.094428
0.075864
0.505329
0.120861
0.056598
0.040898
0.501608
0.133165
0.500596
0.133798
0.509419
0.501168
0.089793
0.111220
0.502485
0.514344
0.135647
0.118346
0.518133
0.505188
0.009287
0.133736
0.504751
0.022305
0.064291
0.505765
0.505711
0.035352
0.107333
0.506580
0.138963
0.084635
0.507483
0.508780
0.132663
0.102228
0.507520
0.050708
0.508158
0.511864
0.508106
0.508339
0.508961
0.509363
0.522200
0.072059
0.525828
0.515184
0.016664
0.510553
0.141451
0.130614
0.097489
0.029688
0.519520
0.126429
0.060823
0.512197
0.042778
0.512367
0.144476
0.143384
0.512593
0.524709
0.079898
0.092357
0.513633
0.513461
0.533169
0.515957
0.530121
0.123559
0.515262
0.515573
0.515738
0.010975
0.024000
0.110269
0.068668
0.147140
0.515825
0.516253
0.037113
0.117946
0.518906
0.520845
0.517978
0.049464
0.105524
0.144698
0.088153
0.150428
0.057151
0.518627
0.540160
0.519537
0.519348
0.519029
0.519140
0.076394
0.538498
0.018354
0.521015
0.151817
0.142837
0.031422
0.530004
0.536608
0.131406
0.522014
0.065024
0.521912
0.044568
0.152278
0.523403
0.094828
0.523694
0.101864
0.529203
0.523678
0.546766
0.156632
0.084371
0.523824
0.537151
0.524330
0.526982
0.128907
0.118436
0.545556
0.157845
0.153413
0.525886
0.526106
0.012653
0.525795
0.025755
0.072881
0.140736
0.526278
0.152237
0.038867
0.538165
0.544740
0.158654
0.527775
0.112125
0.529766
0.552919
0.151690
0.052107
0.092485
0.532621
0.163257
0.061537
0.528939
0.544337
0.159063
0.538766
0.529560
0.529355
0.080864
0.529697
0.538461
0.020027
0.531289
0.126501
0.544289
0.159143
0.151868
0.033093
0.137417
0.165506
0.551571
0.532274
0.532452
0.069484
0.532407
0.558821
0.046357
0.533089
0.149602
0.533365
0.544600
0.158849
0.556180
0.533680
0.100795
0.540554
0.551116
0.088459
0.170255
0.535818
0.135281
0.537203
0.121645
0.550042
0.541001
0.535992
0.110007
0.165470
0.158205
0.545254
0.536291
0.014307
0.168555
0.077498
0.536030
0.027382
0.536444
0.149349
0.564289
0.537703
0.040578
0.550205
0.173714
0.132888
0.539929
0.561819
0.157222
0.546250
0.146273
0.166225
0.066929
0.538794
0.097134
0.539366
0.543795
0.177588
0.539338
0.052338
0.539492
0.084557
0.559916
0.118585
0.165781
0.551770
0.021545
0.569412
0.155940
0.547571
0.541381
0.144157
0.544788
0.130202
0.541637
0.034787
0.542368
0.073869
0.164058
0.542238
0.567580
0.106796
0.542544
0.060866
0.544615
0.552650
0.182063
0.173763
0.543576
0.154342
0.549206
0.092833
0.185266
0.141746
0.547098
0.545005
0.574146
0.127252
0.546199
0.559790
0.048002
0.080675
0.545952
0.546300
0.015925
0.546113
0.115298
0.546546
0.163904
0.553903
0.028938
0.546577
0.572031
0.152449
0.551145
0.184122
0.068889
0.188417
0.139056
0.549721
0.547660
0.569901
0.578546
0.101812
0.548937
0.548870
0.162557
0.555441
0.193332
0.055945
0.549372
0.088916
0.150256
0.553382
0.175500
0.123957
0.550937
0.559974
0.576992
0.023145
0.136091
0.552618
0.551307
0.551509
0.551795
0.036321
0.160840
0.557302
0.552015
0.076907
0.043930
0.582563
0.064032
0.147774
0.555908
0.197246
0.570144
0.201693
0.096673
0.553931
0.554449
0.580811
0.112143
0.554593
0.132886
0.555830
0.554811
0.188769
0.561816
0.170657
0.158848
0.559457
0.051458
0.085192
0.555576
0.586264
0.556137
0.017494
0.030525
0.556441
0.556978
0.121778
0.145012
0.558720
0.072119
0.567950
0.557489
0.579688
0.585121
0.558305
0.205819
0.210452
0.156554
0.561908
0.129611
0.559497