# vtk DataFile Version 1.0.
RESULT
ASCII

DATASET UNSTRUCTURED_GRID

POINTS 1258 float
      0.00000000E+00      0.00000000E+00      0.00000000E+00
      0.00000000E+00      3.03030303E-02      0.00000000E+00
      3.03030303E-02      0.00000000E+00      0.00000000E+00
      2.15974271E-02      2.15974271E-02      0.00000000E+00
      5.00470399E-02      2.05117815E-02      0.00000000E+00
      0.00000000E+00      6.06060606E-02      0.00000000E+00
      6.06060606E-02      0.00000000E+00      0.00000000E+00
      4.31948542E-02      4.31948542E-02      0.00000000E+00
      3.02342485E-02      7.57301724E-02      0.00000000E+00
      7.57277938E-02      3.10282776E-02      0.00000000E+00
      0.00000000E+00      9.09090909E-02      0.00000000E+00
      9.09090909E-02      0.00000000E+00      0.00000000E+00
      6.47922813E-02      6.47922813E-02      0.00000000E+00
      4.99716412E-02      9.06264240E-02      0.00000000E+00
      2.34467141E-02      1.04252323E-01      0.00000000E+00
      1.13176878E-01      2.96333569E-02      0.00000000E+00
      1.21212121E-01      0.00000000E+00      0.00000000E+00
      0.00000000E+00      1.21212121E-01      0.00000000E+00
      8.63897084E-02      8.63897084E-02      0.00000000E+00
      1.07368352E-01      5.90656695E-02      0.00000000E+00
      2.25040696E-02      1.33174539E-01      0.00000000E+00
      5.13552757E-02      1.24995444E-01      0.00000000E+00
      8.02399782E-02      1.16935440E-01      0.00000000E+00
      1.41570272E-01      1.99475313E-02      0.00000000E+00
      1.35761745E-01      4.93798451E-02      0.00000000E+00
      1.51515152E-01      0.00000000E+00      0.00000000E+00
      0.00000000E+00      1.51515152E-01      0.00000000E+00
      1.29953206E-01      7.88121564E-02      0.00000000E+00
      1.07987136E-01      1.07987136E-01      0.00000000E+00
      4.15214969E-02      1.51915194E-01      0.00000000E+00
      7.27380511E-02      1.45970088E-01      0.00000000E+00
      1.64155143E-01      3.96940164E-02      0.00000000E+00
      1.01682707E-01      1.38090627E-01      0.00000000E+00
      1.58346606E-01      6.91263481E-02      0.00000000E+00
      1.52538013E-01      9.85586488E-02      0.00000000E+00
      1.81818182E-01      0.00000000E+00      0.00000000E+00
      0.00000000E+00      1.81818182E-01      0.00000000E+00
      1.29584563E-01      1.29584563E-01      0.00000000E+00
      3.66930173E-02      1.81459208E-01      0.00000000E+00
      6.58385676E-02      1.74376736E-01      0.00000000E+00
      9.40391118E-02      1.67092205E-01      0.00000000E+00
      1.92548536E-01      3.00079317E-02      0.00000000E+00
      1.86740045E-01      5.94405911E-02      0.00000000E+00
      1.59504468E-01      1.22501562E-01      0.00000000E+00
      1.22957317E-01      1.59230803E-01      0.00000000E+00
      1.80931431E-01      8.88728917E-02      0.00000000E+00
      5.74150781E-02      2.03143780E-01      0.00000000E+00
      2.12121212E-01      0.00000000E+00      0.00000000E+00
      0.00000000E+00      2.12121212E-01      0.00000000E+00
      2.83328476E-02      2.10481926E-01      0.00000000E+00
      1.51181990E-01      1.51181990E-01      0.00000000E+00
      8.64769067E-02      1.96115112E-01      0.00000000E+00
      1.15385149E-01      1.88125771E-01      0.00000000E+00
      2.15133332E-01      4.97544855E-02      0.00000000E+00
      1.88540624E-01      1.14962509E-01      0.00000000E+00
      2.06747698E-01      8.02571034E-02      0.00000000E+00
      2.20941963E-01      2.03222361E-02      0.00000000E+00
      1.80554202E-01      1.43875480E-01      0.00000000E+00
      1.43875480E-01      1.80554202E-01      0.00000000E+00
      4.58955955E-02      2.32485236E-01      0.00000000E+00
      7.82844959E-02      2.24555447E-01      0.00000000E+00
      1.07318269E-01      2.17011709E-01      0.00000000E+00
      2.42424242E-01      0.00000000E+00      0.00000000E+00
      0.00000000E+00      2.42424242E-01      0.00000000E+00
      1.72779417E-01      1.72779417E-01      0.00000000E+00
      2.43526628E-01      4.00688916E-02      0.00000000E+00
      2.37718330E-01      6.95005694E-02      0.00000000E+00
      1.36345858E-01      2.09576194E-01      0.00000000E+00
      2.31422425E-01      9.90115735E-02      0.00000000E+00
      2.17175511E-01      1.31891995E-01      0.00000000E+00
      1.65228547E-01      2.01528743E-01      0.00000000E+00
      2.05384814E-01      1.64058013E-01      0.00000000E+00
      7.02029362E-02      2.53439922E-01      0.00000000E+00
      4.11382150E-02      2.60866099E-01      0.00000000E+00
      9.93398818E-02      2.45922214E-01      0.00000000E+00
      1.26963759E-01      2.33476014E-01      0.00000000E+00
      2.72727273E-01      0.00000000E+00      0.00000000E+00
      0.00000000E+00      2.72727273E-01      0.00000000E+00
      2.66110314E-01      5.98126769E-02      0.00000000E+00
      2.71920074E-01      3.03914875E-02      0.00000000E+00
      2.59742718E-01      8.91273014E-02      0.00000000E+00
      1.94279032E-01      1.94279032E-01      0.00000000E+00
      1.57141322E-01      2.30402936E-01      0.00000000E+00
      2.54152485E-01      1.18584059E-01      0.00000000E+00
      2.42998518E-01      1.50860334E-01      0.00000000E+00
      6.21021691E-02      2.82325110E-01      0.00000000E+00
      3.30359010E-02      2.89751158E-01      0.00000000E+00
      1.86503878E-01      2.30329548E-01      0.00000000E+00
      1.07147714E-01      2.76630362E-01      0.00000000E+00
      1.34673464E-01      2.64467019E-01      0.00000000E+00
      2.33979149E-01      1.85295895E-01      0.00000000E+00
      2.94470321E-01      5.01613146E-02      0.00000000E+00
      2.88746057E-01      7.94356715E-02      0.00000000E+00
      2.82418290E-01      1.08742849E-01      0.00000000E+00
      3.03030303E-01      0.00000000E+00      0.00000000E+00
      0.00000000E+00      3.03030303E-01      0.00000000E+00
      2.14819520E-01      2.14819520E-01      0.00000000E+00
      2.76966383E-01      1.37957526E-01      0.00000000E+00
      1.69531066E-01      2.63997962E-01      0.00000000E+00
      3.67085447E-02      3.13213599E-01      0.00000000E+00
      6.63913679E-02      3.08862692E-01      0.00000000E+00
      2.70642371E-01      1.67222503E-01      0.00000000E+00
      9.60741849E-02      3.04511791E-01      0.00000000E+00
      2.11379019E-01      2.39591520E-01      0.00000000E+00
      2.40342304E-01      2.11362381E-01      0.00000000E+00
      3.16562946E-01      7.02030478E-02      0.00000000E+00
      1.25756952E-01      3.00160871E-01      0.00000000E+00
      3.23930960E-01      3.53702503E-02      0.00000000E+00
      3.10922183E-01      9.96141434E-02      0.00000000E+00
      1.96168057E-01      2.63745868E-01      0.00000000E+00
      3.04338344E-01      1.28811031E-01      0.00000000E+00
      2.34396392E-01      2.34396392E-01      0.00000000E+00
      2.67499790E-01      1.96084865E-01      0.00000000E+00
      3.33333333E-01      0.00000000E+00      0.00000000E+00
      0.00000000E+00      3.33333333E-01      0.00000000E+00
      1.55438693E-01      2.95807860E-01      0.00000000E+00
      2.99009151E-01      1.58219519E-01      0.00000000E+00
      5.53179515E-02      3.36744217E-01      0.00000000E+00
      2.56351348E-02      3.41095127E-01      0.00000000E+00
      8.50007686E-02      3.32393314E-01      0.00000000E+00
      1.85103998E-01      2.91421364E-01      0.00000000E+00
      2.62075370E-01      2.25333024E-01      0.00000000E+00
      2.25333024E-01      2.62075370E-01      0.00000000E+00
      2.91807198E-01      1.87096150E-01      0.00000000E+00
      1.14683582E-01      3.28042402E-01      0.00000000E+00
      3.44943930E-01      6.05217548E-02      0.00000000E+00
      3.39092773E-01      8.99321550E-02      0.00000000E+00
      3.51244928E-01      3.13353847E-02      0.00000000E+00
      3.32665360E-01      1.19018430E-01      0.00000000E+00
      1.44367736E-01      3.23690158E-01      0.00000000E+00
      2.53012002E-01      2.53012002E-01      0.00000000E+00
      2.14498647E-01      2.86491754E-01      0.00000000E+00
      3.26886817E-01      1.48428009E-01      0.00000000E+00
      2.89530300E-01      2.16073255E-01      0.00000000E+00
      3.63636364E-01      0.00000000E+00      0.00000000E+00
      0.00000000E+00      3.63636364E-01      0.00000000E+00
      3.19857675E-01      1.77126948E-01      0.00000000E+00
      1.77121716E-01      3.20773633E-01      0.00000000E+00
      4.42445406E-02      3.64625746E-01      0.00000000E+00
      7.39273592E-02      3.60274841E-01      0.00000000E+00
      1.03610175E-01      3.55923931E-01      0.00000000E+00
      2.80187012E-01      2.43499875E-01      0.00000000E+00
      2.43499875E-01      2.80187012E-01      0.00000000E+00
      3.13672950E-01      2.06246759E-01      0.00000000E+00
      2.06246759E-01      3.13672950E-01      0.00000000E+00
      1.33294622E-01      3.51572212E-01      0.00000000E+00
      3.67650700E-01      8.07859811E-02      0.00000000E+00
      3.73490113E-01      5.14112026E-02      0.00000000E+00
      3.61247819E-01      1.10081216E-01      0.00000000E+00
      3.76839181E-01      2.48972853E-02      0.00000000E+00
      2.58962197E-02      3.79226773E-01      0.00000000E+00
      3.55593574E-01      1.39811920E-01      0.00000000E+00
      2.70674884E-01      2.70674884E-01      0.00000000E+00
      3.07678033E-01      2.35282356E-01      0.00000000E+00
      2.35282356E-01      3.07678033E-01      0.00000000E+00
      3.48607122E-01      1.68958178E-01      0.00000000E+00
      1.68767751E-01      3.49581327E-01      0.00000000E+00
      9.17081914E-02      3.80168584E-01      0.00000000E+00
      3.93939394E-01      0.00000000E+00      0.00000000E+00
      0.00000000E+00      3.93939394E-01      0.00000000E+00
      2.96405655E-01      2.61668287E-01      0.00000000E+00
      2.61668287E-01      2.96405655E-01      0.00000000E+00
[...]
POINT_DATA 1258
SCALARS Potential float
LOOKUP_TABLE default
-0.000000
0.012971
0.024676
0.021128
0.036360
0.011358
0.042125
0.032831
0.025969
0.050478
0.010195
0.058994
0.044169
0.035771
0.021586
0.071318
0.076036
0.008971
0.055281
0.067585
0.019869
0.035165
0.050801
0.087591
0.083810
0.093473
0.007477
0.079653
0.066238
0.028677
0.045333
0.100472
0.061254
0.096239
0.091615
0.111336
0.005741
0.077042
0.024460
0.040002
0.055343
0.117515
0.113285
0.094263
0.071447
0.108601
0.033699
0.129701
0.003798
0.018289
0.087590
0.049304
0.065198
0.130805
0.111553
0.124484
0.135012
0.104788
0.081199
0.025683
0.042886
0.058571
0.148683
0.001696
0.097880
0.148826
0.144063
0.074558
0.138467
0.127330
0.090921
0.117370
0.036489
0.021182
0.051963
0.067373
0.168226
-0.000462
0.162619
0.167317
0.156934
0.107778
0.083540
0.151173
0.141173
0.030106
0.014978
0.099262
0.053185
0.068281
0.131719
0.181769
0.176470
0.170166
0.188522
-0.002594
0.116850
0.163825
0.086167
0.015139
0.030201
0.156342
0.045217
0.111516
0.131903
0.195821
0.060195
0.202324
0.189954
0.100002
0.182787
0.124994
0.150369
0.209389
-0.004604
0.075285
0.175747
0.022733
0.007767
0.037528
0.090509
0.142334
0.115573
0.166899
0.052195
0.216152
0.210238
0.221705
0.203193
0.066799
0.132184
0.105975
0.195795
0.160496
0.230999
-0.006371
0.186848
0.082686
0.015568
0.030196
0.044627
0.149505
0.121951
0.177650
0.097559
0.058805
0.231410
0.237200
0.224451
0.240404
0.005765
0.217141
0.138391
0.167833
0.112608
0.208013
0.075242
0.037346
0.253356
-0.007846
0.154935
0.128029
0.198527
0.089310
0.021706
0.253107
0.247055
0.258736
0.187298
0.103590
0.239139
0.143577
0.049570
0.230222
0.004015
0.173451
0.117965
0.068458
0.220644
0.081710
0.159286
0.133070
0.038128
0.276337
-0.008903
0.061196
0.208680
0.096630
0.015551
0.147726
0.269732
0.262109
0.276555
0.193273
0.110393
0.253456
0.282697
0.026816
0.243524
0.050099
0.002178
0.073042
0.139359
0.160749
0.180594
0.150875
0.039285
0.231717
0.090459
0.015642
0.125569
0.299868
-0.009456
0.102848
0.292881
0.061329
0.277537
0.299387
0.287779
0.213223
0.140100
0.165007
0.268060
0.305300
0.028597
0.257003
0.051083
0.004438
0.152906
0.116065
0.085297
0.071588
0.239524
0.096255
0.040989
0.017934
0.144199
0.316378
0.292595
0.107617
0.175337
0.323873
-0.009449
0.322511
0.062059
0.204907
0.154082
0.265533
0.307274
0.131235
0.317676
0.030914
0.143139
0.052741
0.007221
0.235911
0.081252
0.295323
0.090997
0.167596
0.154143
0.196139
0.181228
0.100312
0.116362
0.314814
0.339952
0.043313
0.020795
0.137867
0.210175
0.344470
0.226471
0.340505
0.348132
-0.008843
0.129336
0.268924
0.332737
0.176544
0.164348
0.189739
0.241499
0.153148
0.071123
0.203855
0.143223
0.033858
0.121224
0.219071
0.087170
0.055012
0.260921
0.134043
0.080745
0.115077
0.349520
0.235225
0.108400
0.009314
0.125965
0.100053
0.363485
0.324943
0.277760
0.252494
0.307718
0.339379
0.046367
0.118804
0.362860
0.368944
0.023293
0.372500
-0.007662
0.067963
0.270656
0.112673
0.104683
0.359092
0.299137
0.077586
0.107528
0.289813
0.086419
0.036799
0.058266
0.101500
0.381590
0.013073
0.375175
0.319735
0.094030
0.355344
0.340739
0.103286
0.309752
0.370046
0.098407
0.050258
0.028326
0.390378
0.394933
0.072900
0.396789
-0.005909
0.100148
0.341215
0.385863
0.330551
0.084672
0.005084
0.096913
0.041965
0.098006
0.062456
0.093550
0.373655
0.400960
0.362793
0.385346
0.352138
0.019712
0.408514
0.096232
0.398205
0.096952
0.055202
0.412020
0.084031
0.033898
0.420857
-0.003638
0.420850
0.373984
0.075163
0.384957
0.096925
0.412491
0.091299
0.396405
0.097024
0.010902
0.425620
0.408972
0.066540
0.047872
0.096949
0.396038
0.025633
0.098654
0.432115
0.098286
0.429496
0.422854
0.059188
0.407146
0.085426
0.419067
0.092987
0.040127
0.442360
0.079121
0.444427
-0.000903
0.417977
0.100704
0.438145
0.432358
0.101789
0.017187
0.429071
0.448554
0.102248
0.071856
0.054432
0.441304
0.447031
0.032113
0.104371
0.439495
0.092929
0.455520
0.106116
0.458913
0.102956
0.450417
0.459360
0.455102
0.464629
0.046808
0.085412
0.467493
0.002178
0.109409
0.460285
0.111705
0.023752
0.462773
0.471081
0.468574
0.077836
0.061593
0.470225
0.470874
0.104195
0.115101
0.115744
0.038867
0.477565
0.099125
0.480061
0.481013
0.476842
0.118678
0.115198
0.015277
0.483164
0.486365
0.054020
0.486387
0.490153
0.123545
0.489840
0.005446
0.486850
0.092659
0.498584
0.030663
0.493019
0.127170
0.113816
0.072450
0.495368
0.046070
0.500181
0.499161
0.132765
0.130308
0.499892
0.107634
0.508055
0.515688
0.087498
0.509041
0.137080
0.022113
0.507172
0.506565
0.061389
0.129801
0.511446
0.508708
0.511478
0.008840
0.102811
0.143611
0.531347
0.037664
0.514136
0.123018
0.528326
0.515657
0.145378
0.526819
0.517742
0.143790
0.521311
0.118624
0.053233
0.520767
0.521593
0.082704
0.545388
0.155709
0.026295
0.530244
0.142818
0.543404
0.157704
0.527786
0.527649
0.139688
0.069103
0.103733
0.115743
0.542980
0.158133
0.529788
0.535018
0.557419
0.532343
0.012209
0.169724
0.044990
0.533619
0.536920
0.135447
0.543921
0.157199
0.535913
0.536393
0.555678
0.172742
0.085297
0.546116
0.155013
0.568207
0.541762
0.130099
0.060915
0.541151
0.541802
0.563915
0.185327
0.174265
0.557287
0.549538
0.151606
0.099939
0.032044
0.547732
0.123676
0.546940
0.577376
0.075535
0.558278
0.170905
0.573771
0.554089
0.147069
0.551337
0.192934
0.166128
0.552440
0.015456
0.052097
0.202354
0.116449
0.570701
0.585136
0.555422
0.561424
0.092227
0.582228
0.557662
0.559704
0.141475
0.191999
0.559062
0.027397
0.067612
0.565685
0.591437
0.164259
0.571259
0.210744
0.220777
0.563191
0.109472
0.565162
0.566357
0.134860
0.043148
0.589153
0.566855
0.189672
0.596459
0.084178
0.571058
0.585848
0.159396
0.569429
0.240431
0.594754
0.571849
0.018454
0.059072
0.229910
0.578095
0.600171
0.573985
0.127280
0.101035
0.585798
0.217711
0.577517
0.153463
0.576165
0.576486
0.034330
0.181260
0.602631
0.599123
0.075429
0.261083
0.582513
0.587255
0.250234
0.581638
0.582535
0.118798
0.585424
0.603887
0.145812
0.050174
0.584795
0.584045
0.091953
0.602243
0.598648
0.237970
0.173370
0.282452
0.587653
0.604010
0.134698
0.223998
0.271431
0.597942
0.206281
0.066275
0.593473
0.590561
0.021126
0.596790
0.591834
0.592042
0.109399
0.603018
0.603834
0.304241
0.604567
0.165273
0.594285
0.604728
0.594551
0.082545
0.259288
0.038839
0.600937
0.194557
0.597466
0.598337
0.293200
0.326150
0.598951
0.601906
0.597815
0.604281
0.245596
0.600351
0.601333
0.056899
0.131967
0.154289
0.602589
0.601872
0.099674
0.593599
0.347812
0.315240
0.281354
0.183424
0.230603
0.607814
0.214950
0.605258
0.072915
0.606868
0.588495
0.600076
0.608735
0.609442
0.369159
0.609085
0.608475
0.582429
0.608604
0.023393
0.337301
0.609118
0.609535
0.117438
0.596433
0.610175
0.268165
0.389781
0.171449
0.575412
0.303830
0.045484
0.611978
0.089693
0.567023
0.361113
0.409778
0.613646
0.205737
0.605513
0.557461
0.428884
0.253605
0.586106
0.616117
0.063129
0.547516
0.615617
0.615981
0.447251
0.580118
0.536145
0.617253
0.592670
0.379981
0.135872
0.326379
0.154274
0.464522
0.616416
0.523785
0.480845
0.510441
0.496127
0.618523
0.619060
0.291355
0.107037
0.600342
0.232388
0.402349
0.616697
0.192465
0.571938
0.621899
0.622286
0.079536
0.616486
0.563056
0.439502
0.037884
0.422927
0.621745
0.454491
0.613822
0.546514
0.626157
0.025258
0.277587
0.626109
0.625838
0.519049
0.124571
0.314764
0.627105
0.053264
0.532957
0.180435
0.366086
0.473237
0.625995
0.504038
0.628827
0.096464
0.488500
0.585160
0.628735
0.214725
0.557654
0.605933
0.262397
0.144592
0.632746
0.069259
0.632183
0.629195
0.626707
0.633845
0.342826
0.302027
0.409601
0.114096
0.447644
0.635391
0.570010
0.546585
0.624993
0.612852
0.165064
0.201261
0.600651
0.638184
0.043333
0.638778
0.085763
0.241697
0.623021
0.525526
0.556675
0.640455
0.499118
0.634298
0.639823
0.287876
0.366793
0.642491
0.643102
0.026586
0.639474
0.131723
0.643331
0.058907
0.330097
0.479699
0.187089
0.632649
0.102973
0.644915
0.547788
0.610369
0.593444
0.223526
0.622875
0.272221
0.648847
0.074964
0.396208
0.648055
0.438793
0.642681
0.649371
0.647114
0.633056
0.584920
0.314419
0.353825
0.119088
0.175896
0.560798
0.535568
0.155815
0.651516
0.646562
0.208137
0.654042
0.048513
0.461343
0.604878
0.620132
0.091560
0.642410
0.498218
0.656518
0.549854
0.632277
0.245488
0.423639
0.656380
0.655134
0.299377
0.381742
0.658424
0.659049
0.064113
0.654246
0.659559
0.027379
0.521629
0.137163
0.194045
0.642851
0.341184
0.573925
0.539907
0.653047
0.615994
0.598185
0.485555
0.563725
0.229995
0.107316
0.663022
0.630278
0.664314
0.664870
0.038113
0.080185
0.449737
0.408921
0.285155
0.177606
0.663616
0.653022
0.662255
0.642371
0.325123
0.368381
0.268871
0.125144
0.667365
0.553014
0.660848
0.214771
0.610628
0.469278
0.669453
0.653470
0.627101
0.590537
0.507555
0.640888
0.252444
0.159008
0.434697
0.670527
0.394496
0.309934
0.567804
0.541416
0.674167
0.668923
0.143002
0.675291
0.027731
0.676091
0.043290
0.653151
0.676169
0.059381
0.675094
0.200429
0.357038
0.677074
0.076054
0.666995
0.622855
0.604368
0.492294
0.236421
0.678682
0.093397
0.638396
0.557231
0.582943
0.527347
0.459177
0.420169
0.664818
0.680760
0.111275
0.679153
0.184160
0.652005
0.382634
0.678392
0.683283
0.129847
0.675321
0.220103
0.477837
0.664568
0.290175
0.572873
0.545841
0.634950
0.597331
0.513639
0.686157
0.149130
0.350632
0.444349
0.258611
0.650000
0.685893
0.619282
0.408184
0.675275
0.689297
0.169175
0.683838
0.314163
0.663641
0.562465
0.588310
0.533062
0.681243
0.630652
0.242107
0.692569
0.189930
0.375554
0.336647
0.647156
0.467681
0.611644
0.502482
0.676545
0.432635
0.282020
0.661977
0.695876
0.211456
0.396494
0.578929
0.551377
0.690058
0.305578
0.675783
0.603368
0.523280
0.643540
0.362014
0.454788
0.699065
0.233723
0.659576
0.420418
0.625769
0.492357
0.568703
0.329453
0.689091
0.674362
0.594899
0.542023
0.386294
0.702068
0.256710
0.695844
0.639255
0.477497
0.353149
0.656476
0.618244
0.513506
0.688414
0.443933
0.585309
0.558583
0.672281
0.410216
0.704729
0.280257
0.687166
0.634478
0.652753
0.610359
0.533977
0.376146
0.466629
0.697621
0.575905
0.669565
0.346120
0.498269
0.706933
0.304217
0.432754
0.685321
0.600884
0.552844
0.399706
0.366805
0.648514
0.483511
0.589366
0.569433
0.666266
0.708636
0.328463
0.700389
0.456337
0.682886
0.423068
0.630260
0.523983
0.698729
0.643873
0.473709
0.662466
0.390523
0.709780
0.352768
0.584037
0.679902
0.504218
0.445835
0.696503
0.618300
0.550452
0.413233
0.572182
0.601821
0.710300
0.376972
0.494880
0.658258
0.676434
0.465576
0.524337
0.693746
0.436584
0.646694
0.710233
0.400887
0.486813
0.593043
0.672573
0.541109
0.690515
0.456927
0.617870
0.569464
0.510204
0.639988
0.661701
0.709610
0.424354
0.609860
0.585804
0.686885
0.478444
0.632205
0.560408
0.534478
0.655335
0.708492
0.447259
0.499321
0.682937
0.602844
0.626205
0.578441
0.648850
0.553443
0.527685
0.670533
0.706957
0.469496
0.619493
0.595949
0.642173
0.571747
0.546765
0.664245
0.521574
0.685693
0.612988
0.705094
0.491029
0.635491
0.589195
0.565154
0.657789
0.540761
0.682177
0.606357
0.629163
0.651378
0.702998
0.511855
0.583053
0.559268
0.673256
0.623381
0.645246
0.600373
0.577271
0.666999
0.700797
0.532010
0.617208
0.639238
0.660798
0.594703
0.571728
0.682394
0.698560
0.551455
0.654712
0.611658
0.633951
0.676287
0.589261
0.696361
0.570340
0.628170
0.649285
0.606310
0.671597
0.664905
0.694316
0.588570
0.623073
0.644646
0.639231
0.659739
0.680191
0.618353
0.692472
0.606245
0.674776
0.634534
0.655417
0.690874
0.623478
0.669944
0.650336
0.689604
0.640205
0.666216
0.677909
0.688673
0.656505
0.677111
0.688123
0.672414
0.687981
VECTORS Velocity float
  1.364536     0.592034     0.000000
  0.906451     0.374823     0.000000
  1.927490     0.231671     0.000000
  3.303707     0.629258     0.000000
  2.743839     0.084880     0.000000
  1.859558    -0.075069     0.000000
  1.681602     0.014867     0.000000
  3.146374     0.018140     0.000000
  3.061640    -0.146596     0.000000
  3.850410    -0.032343     0.000000
  1.516136    -0.112307     0.000000
  1.675489    -0.011046     0.000000
  3.209733    -0.101370     0.000000
  3.147249    -0.194182     0.000000
  3.073313    -0.227725     0.000000
  3.380125    -0.061877     0.000000
  1.709502    -0.018983     0.000000
  1.526312    -0.132562     0.000000
  3.261799    -0.195385     0.000000
  3.332980    -0.127052     0.000000
  2.561940    -0.236011     0.000000
  3.129759    -0.274433     0.000000
  3.208568    -0.270337     0.000000
  2.873595    -0.049639     0.000000
  3.428304    -0.133442     0.000000
  1.741670    -0.026781     0.000000
  2.042283    -0.214359     0.000000
  3.373393    -0.208322     0.000000
  3.305329    -0.278434     0.000000
  3.102701    -0.328914     0.000000
  3.170822    -0.335016     0.000000
  4.104754    -0.124356     0.000000
  3.244867    -0.344183     0.000000
  3.480627    -0.215341     0.000000
  3.994639    -0.348019     0.000000
  1.793120    -0.029974     0.000000
  1.526844    -0.187284     0.000000
  3.328776    -0.362980     0.000000
  3.079774    -0.372781     0.000000
  3.133119    -0.383585     0.000000
  3.194114    -0.400794     0.000000
  3.626498    -0.097429     0.000000
  3.581201    -0.203237     0.000000
  2.846923    -0.324385     0.000000
  3.266063    -0.424274     0.000000
  2.945494    -0.242097     0.000000
  3.094938    -0.419293     0.000000
  1.846854    -0.026696     0.000000
  1.015163    -0.133467     0.000000
  3.057510    -0.405519     0.000000
  3.349389    -0.450921     0.000000
  3.143212    -0.441858     0.000000
  3.203531    -0.472805     0.000000
  3.689172    -0.183023     0.000000
  4.128795    -0.453006     0.000000
  3.638280    -0.292188     0.000000
  3.100966    -0.071352     0.000000
  3.460509    -0.479905     0.000000
  3.277252    -0.509568     0.000000
  3.059439    -0.438320     0.000000
  3.093508    -0.465946     0.000000
  3.141721    -0.504079     0.000000
  2.541244    -0.051145     0.000000
  2.027364    -0.283389     0.000000
  3.370774    -0.552700     0.000000
  3.800930    -0.154552     0.000000
  3.761304    -0.281191     0.000000
  3.199798    -0.551968     0.000000
  3.695040    -0.394340     0.000000
  3.604965    -0.504123     0.000000
  3.272587    -0.609767     0.000000
  3.500009    -0.601559     0.000000
  3.047378    -0.478654     0.000000
  3.033221    -0.444513     0.000000
  3.078671    -0.526812     0.000000
  2.611227    -0.472993     0.000000
  1.314686    -0.024913     0.000000
  1.514270    -0.214699     0.000000
  3.895313    -0.256726     0.000000
  3.926752    -0.122669     0.000000
  3.844169    -0.386917     0.000000
  3.386339    -0.673756     0.000000
  3.170719    -0.635991     0.000000
  3.770344    -0.508830     0.000000
  3.670016    -0.634470     0.000000
  3.504613    -0.544546     0.000000
  2.515363    -0.361148     0.000000
  3.784549    -0.860438     0.000000
  3.015783    -0.537043     0.000000
  3.568140    -0.719402     0.000000
  4.134337    -0.882835     0.000000
  4.027757    -0.211536     0.000000
  3.986035    -0.367601     0.000000
  3.929702    -0.505481     0.000000
  2.707660    -0.067825     0.000000
  2.010524    -0.273876     0.000000
  3.370730    -0.811120     0.000000
  3.851769    -0.641568     0.000000
  3.089648    -0.731551     0.000000
  2.993859    -0.424084     0.000000
  2.469725    -0.377067     0.000000
  3.751800    -0.777984     0.000000
  2.954531    -0.509444     0.000000
  2.716634    -0.719007     0.000000
  2.905947    -0.742254     0.000000
  4.123511    -0.328856     0.000000
  2.949838    -0.592520     0.000000
  4.168727    -0.165183     0.000000
  4.083373    -0.482119     0.000000
  3.131760    -0.846654     0.000000
  4.024324    -0.635206     0.000000
  3.364330    -0.944926     0.000000
  3.641771    -0.920258     0.000000
  2.109613    -0.042896     0.000000
  1.002887    -0.124645     0.000000
  2.960576    -0.698541     0.000000
  3.942958    -0.790941     0.000000
  2.945785    -0.407102     0.000000
  3.485819    -0.430169     0.000000
  2.909559    -0.461194     0.000000
  2.986141    -0.827814     0.000000
  3.507323    -1.036661     0.000000
  3.200556    -0.980177     0.000000
  3.832083    -0.948976     0.000000
  2.875719    -0.537079     0.000000
  4.272037    -0.283590     0.000000
  4.237446    -0.440579     0.000000
  4.303225    -0.135895     0.000000
  4.194448    -0.604702     0.000000
  2.854367    -0.644712     0.000000
  3.330552    -1.108260     0.000000
  3.036655    -0.974783     0.000000
  4.130724    -0.781673     0.000000
  3.693189    -1.105735     0.000000
  2.179374    -0.036655     0.000000
  1.500531    -0.162934     0.000000
  4.033319    -0.962485     0.000000
  2.845904    -0.782302     0.000000
  2.443366    -0.289960     0.000000
  2.877150    -0.387397     0.000000
  2.825621    -0.458886     0.000000
  3.508100    -1.225228     0.000000
  3.135367    -1.134729     0.000000
  3.904911    -1.151432     0.000000
  2.869781    -0.943831     0.000000
  2.764841    -0.555065     0.000000
  4.392290    -0.384398     0.000000
  4.410515    -0.235453     0.000000
  4.368465    -0.554748     0.000000
  3.678948    -0.089705     0.000000
  2.965703    -0.301836     0.000000
  4.329514    -0.744624     0.000000
  3.285526    -1.291289     0.000000
  3.728604    -1.317537     0.000000
  2.939926    -1.121600     0.000000
  4.259699    -0.952165     0.000000
  2.718526    -0.701539     0.000000
  2.328272    -0.311883     0.000000
  2.236122    -0.040907     0.000000
  1.496166    -0.126109     0.000000
  3.489904    -1.439841     0.000000
  3.054948    -1.307080     0.000000
  4.144883    -1.175447     0.000000
  2.697568    -0.881511     0.000000
  3.818195    -0.383002     0.000000
  4.534692    -0.319869     0.000000
  4.532938    -0.481554     0.000000
  5.291137    -0.179515     0.000000
  3.976725    -1.396003     0.000000
  2.729296    -1.090535     0.000000
  4.523545    -0.673377     0.000000
  3.222191    -1.497248     0.000000
  3.142520    -0.495303     0.000000
  4.493041    -0.895360     0.000000
  2.953538    -0.212922     0.000000
  3.732530    -1.590721     0.000000
  2.792108    -1.313531     0.000000
  2.611825    -0.586526     0.000000
  4.416409    -1.166376     0.000000
  2.536288    -0.769402     0.000000
  3.445751    -1.687020     0.000000
  2.961882    -1.540156     0.000000
  2.726923    -0.291763     0.000000
  2.303386    -0.037592     0.000000
  1.493610    -0.080736     0.000000
  2.128556    -0.379057     0.000000
  4.261734    -1.474611     0.000000
  2.506402    -1.008054     0.000000
  2.395388    -0.150549     0.000000
  3.148911    -1.733861     0.000000
  4.678364    -0.389427     0.000000
  4.703328    -0.571754     0.000000
  4.656934    -0.245529     0.000000
  3.372205    -1.406390     0.000000
  2.523710    -1.281441     0.000000
  4.712572    -0.792229     0.000000
  4.661870    -0.109563     0.000000
  2.775820    -0.185373     0.000000
  4.706457    -1.088172     0.000000
  2.589354    -0.315365     0.000000
  2.945227    -0.119234     0.000000
  2.803847    -0.685653     0.000000
  2.414917    -1.463827     0.000000
  2.794095    -1.621510     0.000000
  4.987753    -2.733029     0.000000
  3.073063    -1.982188     0.000000
  2.651167    -0.185182     0.000000
  4.624386    -1.473580     0.000000
  2.299082    -0.862222     0.000000
  2.844530    -0.089516     0.000000
  3.012277    -1.908013     0.000000
  2.354281    -0.026642     0.000000
  1.488934    -0.030567     0.000000
  2.258575    -1.150953     0.000000
  4.800636    -0.282512     0.000000
  2.430446    -0.356604     0.000000
  4.919622    -0.651154     0.000000
  4.758492    -0.164452     0.000000
  4.863480    -0.439850     0.000000
  5.134077    -2.238080     0.000000
  2.718570    -2.010076     0.000000
  2.740396    -1.802495     0.000000
  4.975915    -0.892585     0.000000
  3.952361    -0.059452     0.000000
  2.725597    -0.072974     0.000000
  4.998341    -1.318960     0.000000
  2.495686    -0.183504     0.000000
  2.927331    -0.014402     0.000000
  3.004868    -2.267287     0.000000
  2.208087    -1.545833     0.000000
  2.116809    -0.655802     0.000000