# vtk DataFile Version 1.0.
RESULT
ASCII

DATASET UNSTRUCTURED_GRID

POINTS 4826 float
      1.00000000E+00      0.00000000E+00      0.00000000E+00
      9.85074627E-01      0.00000000E+00      0.00000000E+00
      1.00000000E+00      1.49253731E-02      0.00000000E+00
      9.89288145E-01      1.07118549E-02      0.00000000E+00
      9.92755092E-01      1.75123572E-02      0.00000000E+00
      9.82406836E-01      7.23668387E-03      0.00000000E+00
      9.88808314E-01      2.68973499E-02      0.00000000E+00
      9.72957397E-01      1.11783777E-02      0.00000000E+00
      9.70149254E-01      0.00000000E+00      0.00000000E+00
      1.00000000E+00      2.98507463E-02      0.00000000E+00
      9.78576290E-01      2.14237098E-02      0.00000000E+00
      9.83901874E-01      3.88025861E-02      0.00000000E+00
      9.60697207E-01      1.60531170E-02      0.00000000E+00
      9.55223881E-01      0.00000000E+00      0.00000000E+00
      1.00000000E+00      4.47761194E-02      0.00000000E+00
      9.67864435E-01      3.21355648E-02      0.00000000E+00
      9.78499324E-01      5.16356202E-02      0.00000000E+00
      9.46842773E-01      2.10787065E-02      0.00000000E+00
      9.40298507E-01      0.00000000E+00      0.00000000E+00
      1.00000000E+00      5.97014925E-02      0.00000000E+00
      9.57152580E-01      4.28474197E-02      0.00000000E+00
      9.72735248E-01      6.53931237E-02      0.00000000E+00
      9.25373134E-01      0.00000000E+00      0.00000000E+00
      1.00000000E+00      7.46268657E-02      0.00000000E+00
      9.29269387E-01      2.59543864E-02      0.00000000E+00
      9.46440725E-01      5.35592746E-02      0.00000000E+00
      9.13910177E-01      1.45743329E-02      0.00000000E+00
      9.65779814E-01      8.21095667E-02      0.00000000E+00
      9.10447761E-01      0.00000000E+00      0.00000000E+00
      1.00000000E+00      8.95522388E-02      0.00000000E+00
      9.35728870E-01      6.42711295E-02      0.00000000E+00
      9.12838907E-01      4.07030334E-02      0.00000000E+00
      9.01993486E-01      1.81249899E-02      0.00000000E+00
      8.95522388E-01      0.00000000E+00      0.00000000E+00
      1.00000000E+00      1.04477612E-01      0.00000000E+00
      9.75927240E-01      1.02236355E-01      0.00000000E+00
      9.25017015E-01      7.49829844E-02      0.00000000E+00
      9.43931466E-01      9.02611979E-02      0.00000000E+00
      9.06404531E-01      6.05867736E-02      0.00000000E+00
      9.56116489E-01      1.05623900E-01      0.00000000E+00
      8.85702473E-01      1.72225933E-02      0.00000000E+00
      8.89862820E-01      3.55431831E-02      0.00000000E+00
      8.80597015E-01      0.00000000E+00      0.00000000E+00
      1.00000000E+00      1.19402985E-01      0.00000000E+00
      9.80987935E-01      1.18342357E-01      0.00000000E+00
      9.14305160E-01      8.56948394E-02      0.00000000E+00
      9.28812544E-01      9.83283400E-02      0.00000000E+00
      8.88156235E-01      5.24233466E-02      0.00000000E+00
      9.63637271E-01      1.19879611E-01      0.00000000E+00
      8.99118083E-01      7.45858537E-02      0.00000000E+00
      9.40237917E-01      1.11336882E-01      0.00000000E+00
      8.69536074E-01      1.60825449E-02      0.00000000E+00
      8.72265779E-01      3.21718828E-02      0.00000000E+00
      8.84076404E-01      6.62349508E-02      0.00000000E+00
      9.48457585E-01      1.23816610E-01      0.00000000E+00
      1.00000000E+00      1.34328358E-01      0.00000000E+00
      8.65671642E-01      0.00000000E+00      0.00000000E+00
      9.83481062E-01      1.33375906E-01      0.00000000E+00
      9.16043571E-01      1.07238884E-01      0.00000000E+00
      8.72281184E-01      4.73284786E-02      0.00000000E+00
      9.03593305E-01      9.64066943E-02      0.00000000E+00
      9.67449214E-01      1.34099368E-01      0.00000000E+00
      9.26998962E-01      1.18334866E-01      0.00000000E+00
      8.90707537E-01      8.65106200E-02      0.00000000E+00
      8.70487345E-01      6.03346998E-02      0.00000000E+00
      9.53353417E-01      1.35564650E-01      0.00000000E+00
      9.36037053E-01      1.29194996E-01      0.00000000E+00
      8.78056071E-01      7.79440268E-02      0.00000000E+00
      8.56410199E-01      3.04420499E-02      0.00000000E+00
      8.54011510E-01      1.53425218E-02      0.00000000E+00
      9.43046715E-01      1.37004827E-01      0.00000000E+00
      9.84672995E-01      1.47953851E-01      0.00000000E+00
      8.57727493E-01      4.47321090E-02      0.00000000E+00
      8.50746269E-01      0.00000000E+00      0.00000000E+00
      1.00000000E+00      1.49253731E-01      0.00000000E+00
      9.04447405E-01      1.16500140E-01      0.00000000E+00
      9.69325106E-01      1.47577306E-01      0.00000000E+00
      8.66428943E-01      7.10860240E-02      0.00000000E+00
      8.92881451E-01      1.07118549E-01      0.00000000E+00
      9.14924774E-01      1.26874786E-01      0.00000000E+00
      8.81563509E-01      9.74826627E-02      0.00000000E+00
      8.57619605E-01      5.72097983E-02      0.00000000E+00
      9.53960306E-01      1.48058712E-01      0.00000000E+00
      8.69975151E-01      8.85613640E-02      0.00000000E+00
      8.57308068E-01      6.63354727E-02      0.00000000E+00
      9.24035884E-01      1.39725179E-01      0.00000000E+00
      9.39184995E-01      1.46964535E-01      0.00000000E+00
      8.41143121E-01      2.99285043E-02      0.00000000E+00
      8.38603849E-01      1.51322877E-02      0.00000000E+00
      8.58175166E-01      8.01597435E-02      0.00000000E+00
      8.43105474E-01      4.41344466E-02      0.00000000E+00
      9.85062190E-01      1.62662102E-01      0.00000000E+00
      8.35820896E-01      0.00000000E+00      0.00000000E+00
      1.00000000E+00      1.64179104E-01      0.00000000E+00
      9.69682097E-01      1.62123981E-01      0.00000000E+00
      8.93299787E-01      1.25876383E-01      0.00000000E+00
      8.44955512E-01      5.74369116E-02      0.00000000E+00
      9.03307559E-01      1.34128143E-01      0.00000000E+00
      8.82169596E-01      1.17830404E-01      0.00000000E+00
      9.10922603E-01      1.41043710E-01      0.00000000E+00
      8.71678398E-01      1.08214354E-01      0.00000000E+00
      8.46552867E-01      7.05709136E-02      0.00000000E+00
      9.53413025E-01      1.62838057E-01      0.00000000E+00
      8.60985236E-01      9.89615129E-02      0.00000000E+00
      8.49373265E-01      9.03753251E-02      0.00000000E+00
      9.18026179E-01      1.55601089E-01      0.00000000E+00
      8.25901307E-01      3.00096615E-02      0.00000000E+00
      9.34573955E-01      1.64228690E-01      0.00000000E+00
      8.28407212E-01      4.43635245E-02      0.00000000E+00
      8.23266834E-01      1.51488145E-02      0.00000000E+00
      9.04686190E-01      1.50104139E-01      0.00000000E+00
      9.85173069E-01      1.77407303E-01      0.00000000E+00
      8.31391323E-01      5.75894453E-02      0.00000000E+00
      8.93717286E-01      1.43273092E-01      0.00000000E+00
      8.34721362E-01      6.72355605E-02      0.00000000E+00
      1.00000000E+00      1.79104478E-01      0.00000000E+00
      8.20895522E-01      0.00000000E+00      0.00000000E+00
      9.70090064E-01      1.76768015E-01      0.00000000E+00
      8.82758315E-01      1.35854522E-01      0.00000000E+00
      8.37604226E-01      8.16868798E-02      0.00000000E+00
      8.71457741E-01      1.28542259E-01      0.00000000E+00
      8.61613066E-01      1.18761367E-01      0.00000000E+00
      9.54896284E-01      1.77520482E-01      0.00000000E+00
      8.51470675E-01      1.09332342E-01      0.00000000E+00
      8.40213236E-01      1.00773202E-01      0.00000000E+00
      9.40136525E-01      1.79519914E-01      0.00000000E+00
      8.25489797E-01      7.36363281E-02      0.00000000E+00
      8.10468379E-01      3.02435208E-02      0.00000000E+00
      8.95388546E-01      1.61306903E-01      0.00000000E+00
      8.13154931E-01      4.59276416E-02      0.00000000E+00
      8.08087531E-01      1.51924961E-02      0.00000000E+00
      9.08033888E-01      1.69243488E-01      0.00000000E+00
      8.17292652E-01      6.12450474E-02      0.00000000E+00
      9.85056704E-01      1.92277875E-01      0.00000000E+00
      8.83596937E-01      1.53848635E-01      0.00000000E+00
      9.70170018E-01      1.91553478E-01      0.00000000E+00
      1.00000000E+00      1.94029851E-01      0.00000000E+00
      8.05970149E-01      0.00000000E+00      0.00000000E+00
      8.72170129E-01      1.46345656E-01      0.00000000E+00
      9.21008186E-01      1.77837793E-01      0.00000000E+00
      8.27932394E-01      9.24872051E-02      0.00000000E+00
      8.51487836E-01      1.29175026E-01      0.00000000E+00
      9.29596091E-01      1.83883937E-01      0.00000000E+00
      8.60745886E-01      1.39254114E-01      0.00000000E+00
      9.55409711E-01      1.92228341E-01      0.00000000E+00
      8.41788841E-01      1.19728206E-01      0.00000000E+00
      8.31567405E-01      1.11120826E-01      0.00000000E+00
      9.41149132E-01      1.93204914E-01      0.00000000E+00
      8.12340947E-01      8.43778248E-02      0.00000000E+00
      8.20775691E-01      1.03820258E-01      0.00000000E+00
      7.92959522E-01      1.51587357E-02      0.00000000E+00
      7.94675097E-01      3.08731346E-02      0.00000000E+00
      9.84913752E-01      2.07234198E-01      0.00000000E+00
      8.84830596E-01      1.73328500E-01      0.00000000E+00
      8.72936351E-01      1.64812891E-01      0.00000000E+00
      9.27677618E-01      1.95226775E-01      0.00000000E+00
      9.70063311E-01      2.06383615E-01      0.00000000E+00
      1.00000000E+00      2.08955224E-01      0.00000000E+00
      7.91044776E-01      0.00000000E+00      0.00000000E+00
      7.96451478E-01      4.78584737E-02      0.00000000E+00
      8.61402968E-01      1.57090215E-01      0.00000000E+00
      8.97452456E-01      1.83062209E-01      0.00000000E+00
[...]
POINT_DATA 4826
SCALARS Potential float
LOOKUP_TABLE default
0.076735
0.008362
0.058730
0.009299
0.043614
0.002078
0.014850
0.005058
0.002591
0.079423
0.023662
0.037264
-0.000951
0.002030
0.119532
0.002569
0.028937
-0.001575
-0.000848
0.136197
-0.001835
0.030255
-0.000081
0.142117
0.001606
-0.007884
-0.001848
0.018269
0.000023
0.138079
-0.005115
-0.001184
0.000413
-0.000552
0.168325
0.051450
0.004061
0.008899
-0.001495
-0.000807
-0.000270
0.000059
0.000006
0.139895
0.059152
0.002520
-0.002699
-0.000929
0.028251
0.002005
-0.003757
0.000086
0.000131
0.000049
0.006981
0.116138
-0.000069
0.044831
-0.000090
-0.000232
-0.000485
0.018660
0.002289
0.000273
-0.000305
0.011294
-0.001995
0.000691
-0.000085
0.000002
0.007629
0.042593
0.000028
0.000033
0.109165
0.000542
0.014971
0.000231
0.000054
-0.000266
-0.000239
-0.000153
0.004025
-0.000133
-0.000031
0.002912
-0.000168
0.000014
-0.000021
0.000101
-0.000051
0.042254
-0.000007
0.107007
0.015958
-0.000049
-0.000017
0.000548
0.000130
-0.000789
0.000103
0.000041
0.005623
-0.000026
-0.000069
-0.000567
-0.000015
0.002596
0.000007
0.000004
0.000712
0.042043
0.000003
-0.000157
-0.000005
0.106563
-0.000007
0.016063
0.000121
0.000006
0.000019
0.000021
0.006071
0.000044
0.000016
0.002083
0.000015
0.000005
-0.000110
-0.000002
-0.000004
0.000874
-0.000007
0.041642
0.000195
0.015959
0.106503
0.000000
-0.000020
0.000024
-0.000017
0.000004
0.001247
0.000023
0.005847
-0.000004
0.000009
0.002005
-0.000008
0.000011
0.000002
-0.000002
0.041407
0.000210
-0.000021
0.000535
0.015946
0.106502
-0.000001
-0.000002
0.000053
-0.000271
0.006026
0.000008
0.000009
0.000003
0.000001
-0.000258
-0.000001
-0.000003
0.002275
-0.000001
-0.000002
0.000004
0.000962
0.041087
-0.000001
0.000000
0.015979
0.000033
0.105909
0.000000
-0.000118
-0.000009
-0.000001
0.000003
0.000001
0.006136
0.000003
0.000053
0.000001
0.000010
0.000613
0.000002
0.002331
-0.000001
-0.000002
-0.000000
0.000286
0.000928
0.000302
-0.000001
0.000000
0.040259
0.104392
-0.000000
0.015642
0.000000
-0.000027
0.000057
-0.000070
0.000004
0.000001
0.000002
-0.000001
0.000000
0.006063
-0.000000
-0.000001
0.000053
0.000001
0.002317
0.000557
-0.000000
0.000001
-0.000122
0.000959
0.000000
-0.000000
0.039437
0.102368
0.000000
-0.000000
0.000021
0.000000
0.015305
0.000000
-0.000093
0.000000
-0.000009
-0.000001
-0.000003
-0.000000
0.000000
0.000000
0.000000
0.005897
-0.000053
0.000000
0.000202
0.002168
0.000002
-0.000000
-0.000000
-0.000000
-0.000000
0.099780
-0.000000
0.038441
-0.000000
0.000000
-0.000000
-0.000000
-0.000011
0.000000
0.000000
0.000719
0.000004
0.000020
-0.000011
0.014971
0.000000
0.000000
0.000014
0.005934
-0.000000
0.000000
0.000000
0.000002
0.002473
-0.000059
0.000000
0.000000
0.000000
-0.000000
0.096947
-0.000000
-0.000000
0.000000
0.037420
-0.000000
0.000001
-0.000004
0.000000
-0.000028
0.000006
-0.000000
0.001248
0.000000
0.014436
0.000000
-0.000005
-0.000000
0.005567
0.000000
0.000244
-0.000000
-0.000000
-0.000009
-0.000018
0.000359
0.002138
0.000000
-0.000000
-0.000000
0.000000
0.000000
-0.000000
-0.000000
0.093966
0.000000
0.000001
0.000001
0.000000
0.000004
-0.000001
0.036423
-0.000003
0.000000
0.000777
-0.000000
0.014221
0.000000
-0.000001
0.000032
0.000000
-0.000000
0.005535
0.000441
0.000000
0.000012
0.000004
0.000000
0.000150
0.002189
0.000000
-0.000000
-0.000000
-0.000000
-0.000000
0.000002
-0.000001
0.000000
0.000000
0.000000
-0.000012
-0.000000
0.000000
0.000001
0.091299
-0.000000
-0.000000
0.000090
0.000848
0.035686
-0.000000
0.000000
0.000002
-0.000000
0.014010
-0.000002
0.000035
0.000291
-0.000000
-0.000000
-0.000000
0.005522
0.000146
0.000019
-0.000000
0.000000
0.000000
-0.000000
0.002212
0.000000
-0.000000
0.000001
-0.000000
-0.000000
0.000037
0.000000
-0.000000
0.000000
0.000000
-0.000000
0.000000
-0.000000
0.000000
0.000019
0.088541
0.000000
0.000890
-0.000000
-0.000000
0.034893
0.000006
0.000000
0.000000
0.000356
0.000000
0.013761
0.000000
0.005439
0.000119
-0.000000
-0.000000
0.000000
-0.000000
0.000002
0.000000
-0.000000
0.000000
-0.000000
-0.000000
0.000000
0.000000
-0.000000
0.002184
0.000052
0.000000
0.000000
0.000000
0.000000
-0.000000
-0.000000
-0.000000
-0.000001
0.000889
0.000000
0.086651
-0.000000
-0.000008
0.000000
0.034039
-0.000000
-0.000000
0.000360
-0.000000
0.013432
-0.000001
0.000000
-0.000000
-0.000000
-0.000000
0.000000
0.000149
0.000000
0.000000
0.000000
0.005280
-0.000000
0.000000
0.000000
0.000000
-0.000000
0.000000
0.000055
0.002069
0.000000
0.000000
-0.000000
-0.000000
0.000000
0.000010
0.000000
0.000826
-0.000000
0.000000
0.085652
-0.000000
0.000031
0.000000
-0.000000
0.000000
0.033584
0.000335
0.000000
0.000000
0.000000
0.000000
0.000000
0.000000
-0.000000
-0.000000
0.013007
-0.000000
0.000138
-0.000000
-0.000000
-0.000000
0.005032
-0.000000
-0.000000
-0.000000
0.000000
0.000001
0.000058
0.001951
-0.000000
-0.000000
0.000000
-0.000000
-0.000000
-0.000000
0.000761
0.000000
-0.000000
0.000020
-0.000000
-0.000000
0.000000
-0.000000
-0.000000
0.086240
0.000000
-0.000000
0.000000
-0.000000
-0.000000
0.000000
0.000000
0.034102
0.000304
-0.000000
0.000000
0.000000
-0.000000
0.000013
0.012913
-0.000000
0.000124
-0.000000
0.004811
0.000001
0.000003
0.000001
0.000000
-0.000000
-0.000000
0.000051
0.000000
0.000000
0.001823
0.000000
-0.000000
-0.000000
0.000000
0.000000
0.000000
0.000000
-0.000000
-0.000000
0.000000
-0.000000
0.000713
0.000022
-0.000000
0.000000
-0.000000
-0.000000
0.086915
-0.000000
0.000000
0.000283
0.034232
-0.000000
0.000007
0.000000
-0.000000
0.013047
0.000004
-0.000000
-0.000001
-0.000000
0.000000
0.000114
-0.000000
0.000000
0.004866
0.000000
0.000000
0.000000
-0.000000
-0.000000
-0.000000
0.000000
0.000000
0.000046
0.000000
-0.000000
0.001803
-0.000000
-0.000000
-0.000000
0.000000
0.000689
0.000019
0.000000
-0.000000
0.000000
-0.000000
0.088753
-0.000000
0.000000
0.000000
0.000273
0.034663
-0.000000
0.000008
0.000000
-0.000000
-0.000000
-0.000000
0.000000
0.000000
0.013182
0.000000
0.000000
-0.000000
-0.000000
0.000000
-0.000000
0.000000
0.000002
0.000000
0.000111
-0.000000
0.004957
0.000000
-0.000000
0.000000
-0.000000
0.001838
0.000000
0.000044
0.000000
0.000000
0.000000
-0.000000
0.000000
0.000000
0.000694
0.000000
0.000000
0.000017
0.000000
-0.000000
-0.000000
-0.000000
-0.000000
-0.000000
-0.000000
0.090386
-0.000000
0.000000
0.035572
-0.000000
-0.000000
0.000000
0.000270
0.000000
0.013625
0.000007
-0.000001
0.000000
-0.000000
0.005164
-0.000000
-0.000000
0.000111
-0.000000
-0.000000
-0.000000
0.000000
-0.000000
0.000000
-0.000000
-0.000000
0.000000
0.000000
0.000000
-0.000000
0.000000
0.001956
0.000000
0.000003
0.000047
-0.000000
0.000000
-0.000000
-0.000000
0.000742
0.000019
-0.000000
0.000000
0.000000
0.000000
-0.000000
0.092916
-0.000000
-0.000000
0.000000
0.036443
0.000000
-0.000000
-0.000000
0.000000
0.000000
-0.000000
0.014351
0.000000
0.000000
0.000290
0.000000
0.000005
-0.000000
0.000000
0.000001
0.000000
0.005381
-0.000000
-0.000000
0.000000
-0.000000
-0.000000
0.000000
-0.000000
0.000113
-0.000000
0.001959
0.000000
0.000000
0.000000
0.000003
0.000000
0.000000
0.000000
0.000000
0.000000
0.000000
0.000046
0.000000
-0.000000
0.000775
0.000000
-0.000000
0.000000
0.000000
0.000023
0.000000
-0.000000
0.000000
0.000000
0.000000
0.038321
0.093330
0.000000
-0.000000
0.000000
0.000000
0.000000
0.014565
-0.000000
-0.000000
0.000010
-0.000000
0.000000
-0.000000
0.005701
-0.000000
-0.000000
0.000302
-0.000000
-0.000000
-0.000000
-0.000000
0.000000
0.000000
-0.000000
-0.000000
-0.000000
-0.000000
0.002288
-0.000000
0.000000
0.000000
-0.000000
-0.000003
-0.000000
0.000000
0.000000
0.000000
-0.000000
-0.000000
0.000131
0.000000
0.000000
-0.000000
-0.000000
0.000000
0.000000
0.000797
0.000000
0.000000
0.000000
-0.000000
-0.000000
-0.000000
0.000000
-0.000000
0.000013
-0.000000
-0.000000
0.000000
-0.000000
-0.000000
0.039951
0.000000
-0.000000
0.016241
0.000007
0.147347
0.000000
-0.000000
0.004974
0.000000
0.000046
0.001919
-0.000000
-0.000000
0.000008
-0.000000
-0.000000
0.000000
0.000000
0.000000
0.000000
-0.000000
0.000000
0.000000
0.000274
0.000000
-0.000000
0.000000
-0.000000
0.000000
0.000000
-0.000000
0.000000
0.000001
-0.000000
-0.000000
0.000000
-0.000000
0.000000
-0.000000
-0.000000
0.000000
0.000000
0.000000
-0.000000
-0.000000
-0.000000
-0.000000
-0.000000
0.000000
0.000000
0.000000
-0.000000
-0.000000
0.000000
-0.000000
-0.000000
0.000000
0.000000
0.000000
0.000000
0.000000
-0.000000
0.001172
0.000000
0.000018
-0.000000
0.000000
-0.000000
0.000004
0.000003
-0.000000
0.000001
-0.000000
0.000000
-0.000000
0.000000
0.009142
-0.000000
0.016289
0.048623
0.000000
-0.000000
0.214599
-0.000000
0.000000
0.000072
0.000000
0.000000
0.000000
-0.000000
0.000000
0.000000
0.000000
0.000000
0.000000
-0.000000
-0.000000
0.000000
0.000000
-0.000000
-0.000000
0.000000
0.000000
0.000433
-0.000000
0.000000
0.000000
-0.000000
-0.000000
-0.000000
0.000044
-0.000000
-0.000000
-0.000000
0.000000
-0.000000
-0.000000
-0.000000
-0.000000
0.000000
0.000000
0.000000
-0.000000
-0.000000
0.000000
0.000000
0.000171
0.000000
0.000001
0.000000
-0.000000
0.000021
-0.000000
0.000000
-0.000000
0.000000
0.000000
0.000000
-0.000000
-0.000000
-0.000000
-0.000000
0.000000
-0.000000
0.000000
0.000009
0.000000
-0.000000
0.000000
-0.000000
0.000000
0.000003
-0.000000
0.036244
0.081600
0.000000
0.000000
0.010247
-0.000000
0.001678
0.118065
0.000000
-0.000000
0.000000
0.000000
0.000000
0.000000
-0.000001
-0.000000
-0.000000
-0.000000
0.000000
-0.000000
0.000000
0.000651
-0.000000
-0.000000
0.000000
0.000000
0.000000
0.000000
-0.000000
0.000000
-0.000000
0.000024
-0.000000
-0.000000
0.000172
0.000000
0.000000
0.000000
0.000000
0.000000
0.000012
-0.000000
0.000000
-0.000000
-0.000000
-0.000000
0.000000
0.000000
0.000000
0.000010
-0.000000
-0.000000
-0.000000
0.000000
-0.000000
-0.000000
-0.000000
-0.000000
0.000006
0.000000
0.000000
-0.000000
0.000000
-0.000000
0.022462
0.000003
0.034862
0.000000
0.000000
0.013489
-0.000000
0.098538
-0.000000
0.000000
0.000000
-0.000000
-0.000000
-0.000000
-0.000000
-0.000000
0.000000
-0.000000
0.005743
0.000000
-0.000000
0.000000
-0.000000
0.000000
0.000000
-0.000000
-0.000000
-0.000000
0.001661
-0.000000
0.000004
0.000000
0.000000
0.000000
-0.000000
0.000524
-0.000000
-0.000000
0.000000
0.000000
0.000000
0.000165
-0.000000
0.000000
0.000000
0.000000
0.000000
0.000038
0.000000
-0.000000
0.000000
0.000000
-0.000000
0.000007
-0.000000
-0.000000
0.000000
-0.000000
-0.000000
0.000000
0.000003
-0.000000
0.000000
0.000000
-0.000000
-0.000000
0.041936
0.012828
0.000001
0.000000
0.000001
0.100986
-0.000000
0.000005
0.005546
0.000000
0.000000
-0.000000
0.000000
-0.000000
0.000000
-0.000000
0.003709
-0.000000
-0.000000
-0.000000
0.000000
0.000000
0.000000
-0.000000
0.000000
0.000000
0.002194
-0.000000
0.000000
0.000000
-0.000000
0.000923
0.000000
0.000000
0.000346
0.000000
-0.000000
0.000000
-0.000000
0.000000
0.000000
-0.000000
0.000121
0.000000
0.000000
0.000000
-0.000000
0.000035
0.000000
-0.000000
0.000008
-0.000000
-0.000000
0.000000
0.000000
0.000000
0.000005
0.017630
0.041017
0.099719
0.000000
-0.000000
-0.000000
-0.000000
-0.000000
-0.000000
0.005841
0.000000
0.000000
0.000000
0.000000
-0.000000
0.001751
0.000000
0.000000
-0.000000
0.000000
0.000001
0.000854
0.000000
0.000000
-0.000000
-0.000000
0.000619
-0.000000
0.000000
-0.000000
-0.000000
-0.000000
-0.000000
0.000350
0.000000
-0.000000
-0.000000
-0.000000
-0.000000
0.000000
0.000163
-0.000002
-0.000000
-0.000000
-0.000000
0.000069
0.000000
-0.000000
-0.000000
0.000000
0.000028
0.015752
0.039669
0.000000
0.098959
-0.000000
-0.000000
0.000000
-0.000000
-0.000000
-0.000000
0.006867
-0.000000
0.000000
0.000003
-0.000000
-0.000000
0.000000
0.000000
-0.000000
0.002633
-0.000007
0.000000
-0.000000
0.000787
-0.000000
-0.000000
0.000000
0.000000
-0.000000
-0.000000
0.000000
0.000229
0.000000
0.000000
-0.000000
-0.000000
0.000000
0.000000
-0.000000
0.000137
0.000017
0.000000
0.000000
-0.000000
0.000000
0.000000
0.000096
-0.000000
0.000000
0.000001
-0.000000
-0.000000
-0.000000
0.000056
0.000000
-0.000000
-0.000000
0.015864
0.039701
0.000020
-0.000000
0.000028
0.099277
-0.000000
0.000000
0.000000
0.000000
0.006041
0.000000
-0.000000
0.000000
-0.000000
-0.000000
0.002512
-0.000000
0.000000
-0.000000
-0.000000
0.001062
-0.000000
0.000000
-0.000000
0.000000
-0.000000
-0.000000
-0.000000
0.000000
-0.000000
0.000374
0.000000
0.000000
-0.000000
-0.000000
0.000102
-0.000000
0.000000
-0.000000
0.000000
0.000032
0.000000
0.000000
-0.000000
-0.000000
-0.000001
0.000000
-0.000000
0.000000
0.015955
0.000020
0.039804
0.000000
-0.000000
0.006345
0.099715
0.000000
-0.000000
0.000000
-0.000000
-0.000000
-0.000000
0.000003
0.000001
0.000000
-0.000000
0.000000
0.002350
0.000000
0.000014
-0.000000
0.000000
0.000902
0.000005
-0.000000
-0.000000
0.000001
-0.000000
-0.000000
0.000000
0.000381
0.000000
-0.000000
-0.000000
0.000000
0.000000
-0.000000
-0.000000
0.000000
-0.000000
0.000158
-0.000000
0.000000
-0.000000
-0.000000
0.000052
0.000000
0.000000
-0.000000
0.000000
-0.000000
0.015836
0.039897
-0.000000
-0.000000
0.006270
-0.000000
0.000000
0.100185
-0.000000
-0.000000
0.000013
-0.000000
-0.000000
0.000000
0.000000
0.002470
-0.000000
-0.000000
0.000000
-0.000000
0.000000
0.000000
0.000908
0.000000
0.000000
0.000000
-0.000000
-0.000000
0.000000
-0.000000
-0.000000
0.000004
-0.000000
0.000329
0.000000
0.000000
-0.000001
-0.000000
0.000000
-0.000000
0.000000
0.000129
0.000000
0.000000
-0.000000
-0.000000
-0.000000
-0.000000
-0.000000
-0.000000
0.000057
0.000004
0.000000
-0.000000
-0.000000
0.000000
0.015826
0.040201
0.006196
-0.000000
-0.000000
0.101207
0.000000
0.000000
0.002391
0.000023
-0.000000
0.000000
-0.000000
0.000000
0.000000
-0.000000
-0.000000
-0.000000
0.000000
-0.000000
0.000918
0.000000
0.000000
0.000000
0.000000
-0.000000
0.000000
0.000000
-0.000000
-0.000000
0.000343
0.000007
-0.000000
0.000000
0.000000
0.000000
-0.000000
0.000000
0.000122
-0.000000
0.000000
-0.000000
0.000000
-0.000000
0.000000
-0.000000
-0.000000
-0.000000
0.000000
-0.000000
-0.000000
0.000045
0.000000
-0.000001
-0.000000
0.000000
0.000000
0.015876
0.040226
0.006175
0.000000
0.000019
0.002370
0.101879
-0.000000
-0.000000
0.000000
-0.000000
-0.000000
-0.000000
0.000000
0.000000
-0.000000
0.000000
0.000886
0.000001
0.000000
0.000000
0.000000
-0.000000
0.000000
0.000000
-0.000000
0.000000
0.000000
0.000010
0.000330
0.000000
-0.000000
-0.000000
-0.000000
-0.000000
-0.000000
-0.000000
0.000000
0.000126
-0.000000
0.000000
-0.000000
0.000000
0.000000
0.000000
0.000005
-0.000000
0.000003
-0.000000
0.000046
0.000000
-0.000000
0.000000
0.000000
0.000000
0.016047
0.006213
0.040640
0.000018
0.002371
0.000000
0.000000
0.000000
0.102884
-0.000000
0.000000
-0.000000
-0.000000
-0.000000
0.000000
0.000000
0.000006
0.000888
-0.000000
-0.000000
-0.000000
-0.000000
0.000000
-0.000000
0.000000
-0.000000
-0.000000
-0.000000
-0.000000
-0.000000
0.000315
0.000000
0.000000
0.000000
-0.000001
0.000000
0.000005
-0.000000
-0.000000
0.000114
-0.000000
-0.000000
-0.000000
-0.000000
-0.000000
0.000001
0.000000
-0.000000
-0.000000
-0.000000
0.000000
0.000000
-0.000000
0.000046
0.000000
-0.000000
0.000013
-0.000000
-0.000000
0.000000
0.006309
0.016108
-0.000000
0.002431
0.040799
0.000000
0.000000
0.103302
0.000000
0.000914
0.000000
0.000000
-0.000000
0.000001
0.000000
-0.000000
-0.000000
-0.000000
-0.000000
0.000002
0.000017
-0.000000
0.000000
-0.000000
0.000339
0.000000
-0.000000
-0.000000
-0.000000
0.000000
-0.000000
-0.000000
-0.000002
-0.000000
-0.000000
0.000120
-0.000000
0.000000
0.000000
-0.000001
0.000000
0.000040
0.000000
0.000000
0.000000
-0.000000
0.000000
0.000000
-0.000000
-0.000000
-0.000000
-0.000000
-0.000000
-0.000000
-0.000000
-0.000000
-0.000000
-0.000000
0.000000
0.006285
0.016007
0.000000
0.002452
-0.000000
0.040869
0.000937
-0.000000
0.103379
-0.000000
-0.000000
-0.000004
0.000000
0.000028
-0.000000
0.000338
0.000000
0.000000
-0.000000
0.000000
0.000076
0.000152
-0.000000
0.000000
-0.000000
0.000000
0.000000
-0.000000
-0.000000
0.000000
-0.000000
-0.000000
0.000000
-0.000000
-0.000000
-0.000000
-0.000000
-0.000000
-0.000000
0.000000
-0.000000
0.000000
-0.000000
0.000000
-0.000000
0.000000
0.000075
-0.000000
0.000000
-0.000000
-0.000001
0.000000
-0.000000
-0.000000
-0.000000
0.000000
0.000000
0.000000
0.006219
0.016051
0.000025
0.002400
0.000078
0.041233
0.000920
-0.000000
0.000342
0.000000
0.000000
0.000000
0.103612
0.000000
0.000000
0.000000
0.000000
-0.000000
-0.000000
-0.000000
0.000000
0.000000
-0.000000
-0.000000
-0.000000
0.000008
0.000000
0.000000
0.000000
0.000000
0.000000
0.000000
0.000000
0.000000
0.000000
-0.000000
-0.000000
0.000000
0.000000
0.000000
-0.000000
-0.000000
0.000000
0.000019
0.000000
-0.000000
-0.000001
-0.000000
-0.000000
-0.000000
-0.000000
0.000000
0.000000
-0.000000
0.000000
0.000000
-0.000000
-0.000000
-0.000000
-0.000000
0.000000
0.000000
0.006169
0.015902
0.000159
0.002363
0.000000
0.040708
-0.000000
0.000881
0.000002
0.000320
0.000000
-0.000000
-0.000000
0.102946
0.000000
-0.000000
0.000000
-0.000013
0.000000
-0.000000
-0.000000
0.000000
0.000000
0.000000
0.000000
0.000000
0.000000
-0.000000
-0.000000
-0.000000
0.000000
0.000000
0.000000
-0.000000
0.000000
0.000000
-0.000000
-0.000000
-0.000000
-0.000000
0.000000
-0.000000
0.000000
-0.000000
-0.000000
-0.000000
0.000000
0.000000
-0.000000
-0.000000
0.000055
0.000000
-0.000000
0.000000
-0.000000
0.000000
-0.000000
-0.000000
-0.000000
-0.000000
-0.000000
-0.000000
-0.000000
0.000000
-0.000000
0.000000
-0.000000
0.000000
-0.000000
-0.000000
0.015388
0.006008
0.039954
-0.000000
0.002335
0.000000
-0.000000
-0.000000
0.000000
0.000891
0.102570
-0.000000
0.000000
0.000000
0.000303
0.000000
0.000003
0.000000
-0.000000
-0.000000
0.000000
0.000000
0.000000
0.000000
-0.000000
-0.000000
0.000000
-0.000000
0.000016
-0.000006
0.000000
0.000000
0.000000
-0.000000
0.000000
0.000000
-0.000000
0.000000
0.000000
-0.000000
-0.000000
0.000000
-0.000000
-0.000000
-0.000000
-0.000000
0.000000
-0.000000
-0.000000
0.000000
0.000000
-0.000000
-0.000000
-0.000000
-0.000000
0.000000
-0.000000
0.000000
-0.000000
-0.000000
0.000000
-0.000000
-0.000000
0.000000
0.000000
0.000010
0.000000
-0.000000
-0.000000
0.000000
-0.000000
0.000000
-0.000000
-0.000000
0.000000
0.000000
0.000000
-0.000000
-0.000000
0.000001
-0.000000
-0.000000
0.039252
0.014933
0.000000
0.000000
-0.000000
0.000000
0.000000
0.005694
0.101916
0.000000
0.000000
0.000000
0.000000
0.000000
0.000000
-0.000000
0.002192
0.000000
0.000414
0.000000
0.000000
0.000000
0.000000
-0.000000
0.000878
-0.000000
-0.000000
0.000000
-0.000000
0.000000
0.000017
-0.000001
-0.000000
-0.000000
-0.000000
-0.000000
-0.000000
-0.000000
-0.000000
-0.000000
-0.000000
0.000000
0.000176
0.000000
0.000000
-0.000000
-0.000000
-0.000000
0.000000
0.000000
0.000000
-0.000000
-0.000000
-0.000000
0.000000
-0.000000
0.000000
0.000000
0.000000
-0.000000
-0.000000
-0.000000
0.000000
-0.000000
-0.000000
-0.000001
-0.000000
0.000000
-0.000000
0.000000
0.000000
0.000000
-0.000000
-0.000000
-0.000000
0.000000
0.000000
-0.000000
0.000000
0.000000
0.000000
0.000318
0.000008
-0.000000
0.000000
0.000000
-0.000000
0.000000
-0.000000
0.000000
0.038532
0.000000
-0.000000
0.014631
0.101153
-0.000000
0.000000
-0.000000
-0.000000
0.000000
0.005498
0.000000
-0.000000
0.000000
-0.000000
-0.000000
-0.000000
0.000000
-0.000000
-0.000000
0.000008
0.000000
-0.000000
-0.000000
0.000000
-0.000000
0.000058
0.001974
0.000000
0.000000
0.000000
-0.000000
-0.000000
0.000000
-0.000000
-0.000000
0.000000
-0.000000
0.000000
-0.000000
0.000127
-0.000000
0.000000
0.000000
0.000631
-0.000000
-0.000000
0.000000
0.000000
0.000000
0.000000
0.000000
0.000000
-0.000000
-0.000001
0.000000
-0.000000
-0.000000
-0.000000
-0.000000
0.000000
-0.000000
0.000000
0.000000
0.000000
0.000002
0.000000
-0.000000
0.000000
0.000000
-0.000000
-0.000000
0.000000
-0.000000
0.000000
-0.000000
-0.000000
0.000000
-0.000000
0.000000
0.000000
-0.000000
0.000000
0.000000
0.000000
0.000000
0.038032
0.000000
0.000000
0.100026
0.000000
0.000000
0.000000
-0.000000