# vtk DataFile Version 1.0.
RESULT
ASCII

DATASET UNSTRUCTURED_GRID

POINTS 275 float
      1.00000000E+00      0.00000000E+00      0.00000000E+00
      9.50481802E-01      4.95181974E-02      0.00000000E+00
      9.28571429E-01      0.00000000E+00      0.00000000E+00
      1.00000000E+00      7.14285714E-02      0.00000000E+00
      9.00963605E-01      9.90363949E-02      0.00000000E+00
      1.00000000E+00      1.42857143E-01      0.00000000E+00
      8.57142857E-01      0.00000000E+00      0.00000000E+00
      9.19115311E-01      1.66294050E-01      0.00000000E+00
      8.25937485E-01      7.31625294E-02      0.00000000E+00
      8.51445407E-01      1.48554592E-01      0.00000000E+00
      1.00000000E+00      2.14285714E-01      0.00000000E+00
      7.85714286E-01      0.00000000E+00      0.00000000E+00
      7.71140231E-01      6.20320932E-02      0.00000000E+00
      9.37468496E-01      2.33833939E-01      0.00000000E+00
      7.89218526E-01      1.29352096E-01      0.00000000E+00
      8.71066988E-01      2.20062059E-01      0.00000000E+00
      8.02443026E-01      1.97556973E-01      0.00000000E+00
      1.00000000E+00      2.85714286E-01      0.00000000E+00
      7.14285714E-01      0.00000000E+00      0.00000000E+00
      7.17325939E-01      9.90544843E-02      0.00000000E+00
      9.10946968E-01      3.00110619E-01      0.00000000E+00
      7.37987944E-01      1.76279914E-01      0.00000000E+00
      8.04982721E-01      2.74022182E-01      0.00000000E+00
      7.59265003E-01      2.40734997E-01      0.00000000E+00
      1.00000000E+00      3.57142857E-01      0.00000000E+00
      6.42857143E-01      0.00000000E+00      0.00000000E+00
      6.36990477E-01      7.92848836E-02      0.00000000E+00
      6.54332744E-01      1.47377918E-01      0.00000000E+00
      8.43701735E-01      3.50623455E-01      0.00000000E+00
      6.78246565E-01      2.22715069E-01      0.00000000E+00
      9.20665534E-01      3.83515763E-01      0.00000000E+00
      7.21786227E-01      2.78213772E-01      0.00000000E+00
      7.39078259E-01      3.27615038E-01      0.00000000E+00
      1.00000000E+00      4.28571429E-01      0.00000000E+00
      5.71428571E-01      0.00000000E+00      0.00000000E+00
      5.86054031E-01      1.27688335E-01      0.00000000E+00
      6.89676993E-01      3.10323006E-01      0.00000000E+00
      6.58865542E-01      2.76225740E-01      0.00000000E+00
      6.04309754E-01      1.91921355E-01      0.00000000E+00
      8.53189186E-01      4.19488982E-01      0.00000000E+00
      7.89862032E-01      3.94597981E-01      0.00000000E+00
      9.17893249E-01      4.46119111E-01      0.00000000E+00
      5.47856649E-01      6.70818244E-02      0.00000000E+00
      6.11178744E-01      2.48251784E-01      0.00000000E+00
      7.26554678E-01      3.87523541E-01      0.00000000E+00
      6.40682519E-01      3.10070634E-01      0.00000000E+00
      6.62475285E-01      3.37524714E-01      0.00000000E+00
      6.13008886E-01      2.88585568E-01      0.00000000E+00
      5.48982819E-01      1.83230009E-01      0.00000000E+00
      6.79320420E-01      3.72451910E-01      0.00000000E+00
      5.68876841E-01      2.36247521E-01      0.00000000E+00
      5.17566854E-01      1.24787956E-01      0.00000000E+00
      7.95841604E-01      4.56110632E-01      0.00000000E+00
      1.00000000E+00      5.00000000E-01      0.00000000E+00
      5.00000000E-01      0.00000000E+00      0.00000000E+00
      5.80791140E-01      2.74836687E-01      0.00000000E+00
      7.35224153E-01      4.30772759E-01      0.00000000E+00
      8.52872801E-01      4.93503128E-01      0.00000000E+00
      6.89288525E-01      4.12180015E-01      0.00000000E+00
      5.46142020E-01      2.69627187E-01      0.00000000E+00
      5.25625254E-01      2.34815402E-01      0.00000000E+00
      4.75099963E-01      7.07297718E-02      0.00000000E+00
      4.95190912E-01      1.87251975E-01      0.00000000E+00
      7.35215500E-01      4.81427794E-01      0.00000000E+00
      6.92042295E-01      4.55085290E-01      0.00000000E+00
      7.89322365E-01      5.18243749E-01      0.00000000E+00
      5.11208169E-01      2.72563855E-01      0.00000000E+00
      8.99637517E-01      5.52782967E-01      0.00000000E+00
      4.53725683E-01      1.36066318E-01      0.00000000E+00
      4.84055857E-01      2.42610256E-01      0.00000000E+00
      1.00000000E+00      5.71428571E-01      0.00000000E+00
      4.28571429E-01      0.00000000E+00      0.00000000E+00
      6.87698435E-01      4.98747775E-01      0.00000000E+00
      4.45632660E-01      2.01440928E-01      0.00000000E+00
      8.35290961E-01      5.68052707E-01      0.00000000E+00
      4.77574700E-01      2.82515905E-01      0.00000000E+00
      7.24878989E-01      5.29646322E-01      0.00000000E+00
      4.03553216E-01      9.03712012E-02      0.00000000E+00
      4.45596514E-01      2.57754818E-01      0.00000000E+00
      9.36081630E-01      6.11436506E-01      0.00000000E+00
      7.67863520E-01      5.74950842E-01      0.00000000E+00
      3.96761879E-01      1.57893034E-01      0.00000000E+00
      8.67036927E-01      6.10322916E-01      0.00000000E+00
      6.77537793E-01      5.39440449E-01      0.00000000E+00
      4.46184023E-01      2.98194534E-01      0.00000000E+00
      4.01294311E-01      2.23194102E-01      0.00000000E+00
      7.09379022E-01      5.73062469E-01      0.00000000E+00
      1.00000000E+00      6.42857143E-01      0.00000000E+00
      3.57142857E-01      0.00000000E+00      0.00000000E+00
      4.10807768E-01      2.78571195E-01      0.00000000E+00
      3.48871909E-01      5.27208691E-02      0.00000000E+00
      7.37043272E-01      6.09255673E-01      0.00000000E+00
      4.17530676E-01      3.18463016E-01      0.00000000E+00
      7.97548554E-01      6.32617783E-01      0.00000000E+00
      6.63135402E-01      5.76071287E-01      0.00000000E+00
      9.24502257E-01      6.64033142E-01      0.00000000E+00
      3.41130139E-01      1.20298770E-01      0.00000000E+00
      3.47013240E-01      1.87183808E-01      0.00000000E+00
      6.85815159E-01      6.09010243E-01      0.00000000E+00
      8.47886403E-01      6.77616246E-01      0.00000000E+00
      3.91865968E-01      3.42411973E-01      0.00000000E+00
      6.48277503E-01      6.04187962E-01      0.00000000E+00
      3.70494408E-01      3.08710508E-01      0.00000000E+00
      3.46901881E-01      2.56956707E-01      0.00000000E+00
      7.03718205E-01      6.40421637E-01      0.00000000E+00
      1.00000000E+00      7.14285714E-01      0.00000000E+00
      2.85714286E-01      0.00000000E+00      0.00000000E+00
      7.41412287E-01      6.68368229E-01      0.00000000E+00
      2.77119525E-01      1.05655243E-01      0.00000000E+00
      6.30666748E-01      6.30666748E-01      0.00000000E+00
      3.69333252E-01      3.69333252E-01      0.00000000E+00
      7.84255363E-01      7.00848063E-01      0.00000000E+00
      8.96008582E-01      7.27680330E-01      0.00000000E+00
      6.56832975E-01      6.56832975E-01      0.00000000E+00
      3.43167024E-01      3.43167024E-01      0.00000000E+00
      2.93279095E-01      2.26177746E-01      0.00000000E+00
      6.87306866E-01      6.87306866E-01      0.00000000E+00
      3.12693133E-01      3.12693133E-01      0.00000000E+00
      8.28148356E-01      7.42416215E-01      0.00000000E+00
      2.57583784E-01      1.71851643E-01      0.00000000E+00
      3.48842191E-01      4.00760820E-01      0.00000000E+00
      6.08134033E-01      6.57588026E-01      0.00000000E+00
      7.22473649E-01      7.22473649E-01      0.00000000E+00
      2.77526350E-01      2.77526350E-01      0.00000000E+00
      2.26862382E-01      5.72804383E-02      0.00000000E+00
      9.42710832E-01      7.78164378E-01      0.00000000E+00
      6.29505592E-01      6.91289491E-01      0.00000000E+00
      3.04953452E-01      3.63984324E-01      0.00000000E+00
      1.00000000E+00      7.85714286E-01      0.00000000E+00
      2.14285714E-01      0.00000000E+00      0.00000000E+00
      3.31741152E-01      4.35509016E-01      0.00000000E+00
      7.62629777E-01      7.62629777E-01      0.00000000E+00
      2.37370222E-01      2.37370222E-01      0.00000000E+00
      8.74809015E-01      7.89076874E-01      0.00000000E+00
      2.10923125E-01      1.25190984E-01      0.00000000E+00
      5.82469325E-01      6.81536983E-01      0.00000000E+00
      3.04934711E-01      4.05372708E-01      0.00000000E+00
      2.58587712E-01      3.31631770E-01      0.00000000E+00
      6.53098120E-01      7.43043291E-01      0.00000000E+00
      7.06720904E-01      7.73822252E-01      0.00000000E+00
      3.18729242E-01      4.72987409E-01      0.00000000E+00
      5.89192234E-01      7.21428803E-01      0.00000000E+00
      8.07934794E-01      8.07934794E-01      0.00000000E+00
      1.92065205E-01      1.92065205E-01      0.00000000E+00
      1.72501645E-01      7.04254881E-02      0.00000000E+00
      9.29573057E-01      8.28336148E-01      0.00000000E+00
      5.53815979E-01      7.01805465E-01      0.00000000E+00
      2.61495941E-01      3.90280489E-01      0.00000000E+00
      2.86312475E-01      4.40734854E-01      0.00000000E+00
      2.15744636E-01      2.99151937E-01      0.00000000E+00
      1.00000000E+00      8.57142857E-01      0.00000000E+00
      1.42857143E-01      0.00000000E+00      0.00000000E+00
      3.10504832E-01      5.12685215E-01      0.00000000E+00
      5.22425302E-01      7.17484094E-01      0.00000000E+00
      5.54403488E-01      7.42245180E-01      0.00000000E+00
      7.42416215E-01      8.28148356E-01      0.00000000E+00
      1.71851643E-01      2.57583784E-01      0.00000000E+00
      8.55951095E-01      8.55951095E-01      0.00000000E+00
      1.44048904E-01      1.44048904E-01      0.00000000E+00
      2.73389370E-01      4.84294952E-01      0.00000000E+00
      5.98705691E-01      7.76805895E-01      0.00000000E+00
      2.00542802E-01      3.63700534E-01      0.00000000E+00
[...]
POINT_DATA 275
SCALARS Potential float
LOOKUP_TABLE default
0.730103
0.705035
0.691884
0.732174
0.679940
0.736816
0.650424
0.695922
0.633368
0.655405
0.744036
0.605037
0.596920
0.713766
0.614694
0.676012
0.632876
0.752775
0.554833
0.561418
0.709301
0.587011
0.649384
0.615413
0.761658
0.500702
0.498402
0.518851
0.684434
0.554215
0.725285
0.603630
0.630265
0.768863
0.442858
0.458691
0.598080
0.559087
0.482242
0.699201
0.670402
0.730335
0.423894
0.502779
0.647454
0.565374
0.600008
0.523797
0.427377
0.627547
0.452918
0.397663
0.681826
0.773011
0.383726
0.477040
0.661468
0.705014
0.649423
0.427973
0.402526
0.362279
0.374112
0.668194
0.661218
0.682727
0.379569
0.726096
0.340850
0.354476
0.774507
0.325468
0.663536
0.325247
0.698314
0.334064
0.665402
0.302903
0.310497
0.742412
0.672408
0.290803
0.709850
0.657393
0.292790
0.281946
0.655388
0.773514
0.269722
0.271380
0.262365
0.656365
0.256424
0.677270
0.644561
0.734577
0.252418
0.247977
0.639103
0.695959
0.225051
0.628944
0.229290
0.231925
0.635978
0.770849
0.218050
0.646189
0.208411
0.609859
0.198664
0.661589
0.716604
0.609371
0.199235
0.204138
0.614257
0.194303
0.679574
0.188933
0.176683
0.583511
0.624716
0.183893
0.176378
0.738599
0.579282
0.175170
0.768301
0.168671
0.159307
0.640465
0.168154
0.701372
0.163165
0.552143
0.162508
0.162515
0.576633
0.604419
0.148626
0.537186
0.661854
0.146751
0.140713
0.729993
0.515782
0.151715
0.149801
0.147119
0.767836
0.121464
0.144831
0.474521
0.498076
0.619552
0.129197
0.687200
0.121315
0.142011
0.526603
0.130912
0.560539
0.148802
0.429040
0.131523
0.454114
0.645186
0.107525
0.141764
0.112862
0.160801
0.714897
0.093234
0.380672
0.483312
0.181467
0.406093
0.074160
0.770108
0.331654
0.149609
0.517711
0.126170
0.599946
0.092364
0.208734
0.284962
0.243442
0.556025
0.079339
0.667277
0.100899
0.434472
0.165132
0.355742
0.744953
0.061765
0.106955
0.129721
0.070673
0.305939
0.631760
0.210954
0.467689
0.079014
0.249744
0.381242
0.180366
0.505577
0.147599
0.105520
-0.000000
0.785978
0.731134
0.044413
0.326419
0.546036
0.685665
0.043302
0.069332
0.410914
0.205306
0.639270
0.041324
0.079912
0.254516
0.113627
0.590190
0.038388
0.446255
0.166782
0.349924
0.538674
0.035591
0.083178
0.193167
0.289795
0.130261
0.384685
0.483014
0.034323
0.221618
0.151363
0.086739
0.424816
0.035425
0.310214
0.175733
0.112825
0.247205
0.365725
0.039855
0.080943
0.193893
0.134015
0.307909
0.047151
0.153066
0.211703
0.095126
0.253792
0.055840
0.175241
0.107543
0.203622
0.064566
0.128527
0.158377
0.071697
0.126693
0.103695
0.116255
0.076483
0.078472
VECTORS Velocity float
  1.070303     0.057833     0.000000
  3.281569     0.229537     0.000000
  1.115500     0.037601     0.000000
  1.054541     0.093982     0.000000
  3.421448     0.394356     0.000000
  2.140531     0.306711     0.000000
  2.385021     0.125379     0.000000
  3.275437     0.648739     0.000000
  3.772062     0.352431     0.000000
  3.554728     0.663438     0.000000
  1.579497     0.345689     0.000000
  1.998488     0.096407     0.000000
  3.410887     0.267450     0.000000
  2.637282     0.645561     0.000000
  3.939156     0.678945     0.000000
  3.324737     0.874795     0.000000
  3.661157     1.037156     0.000000
  1.540931     0.383544     0.000000
  2.925450     0.149326     0.000000
  4.382341     0.543586     0.000000
  3.576549     1.027809     0.000000
  4.193408     1.086539     0.000000
  3.808102     1.551229     0.000000
  3.182726     1.242116     0.000000
  1.503014     0.358295     0.000000
  1.567652     0.057994     0.000000
  5.620328     0.352181     0.000000
  4.861090     0.862364     0.000000
  2.780358     1.111763     0.000000
  5.506443     2.019157     0.000000
  2.864819     0.723261     0.000000
  3.720690     2.166151     0.000000
  3.117883     2.420312     0.000000
  1.464796     0.261376     0.000000
  2.472131     0.049632     0.000000
  5.288946     0.392091     0.000000
  3.490263     3.256469     0.000000
  4.840624     3.013893     0.000000
  5.671416     1.004560     0.000000
  2.497371     0.718410     0.000000
  2.177608     1.326722     0.000000
  2.763380     0.416111     0.000000
  5.074643     0.067864     0.000000
  6.158782     2.146418     0.000000
  1.375682     1.742190     0.000000
  2.286907     1.978198     0.000000
  1.147862     1.289612     0.000000
  3.110607     1.645236     0.000000
  5.980584     0.223057     0.000000
  1.519253     1.940942     0.000000
  6.898270     0.918873     0.000000
  5.377111    -0.091544     0.000000
  1.913496     0.612927     0.000000
  1.450852     0.123258     0.000000
  2.490069    -0.013097     0.000000
  3.737115     0.947518     0.000000
  1.261368     1.242722     0.000000
  2.367909     0.249530     0.000000
  0.564754     1.044023     0.000000
  3.928820     0.160620     0.000000
  6.947860    -0.332358     0.000000
  5.028388    -0.154358     0.000000
  5.877025    -0.533484     0.000000
  1.076387     0.330403     0.000000
  0.357329     0.462980     0.000000
  1.863347    -0.038881     0.000000
  3.763238    -0.567642     0.000000
  3.195940     0.025627     0.000000
  5.194874    -0.515086     0.000000
  6.502240    -1.388290     0.000000
  1.458771    -0.017318     0.000000
  3.187083    -0.092130     0.000000
  0.350716    -0.089459     0.000000
  5.485311    -1.142569     0.000000
  2.405645    -0.248503     0.000000
  3.357020    -1.108214     0.000000
  1.177560    -0.550103     0.000000
  4.786781    -0.375984     0.000000
  5.754757    -2.122812     0.000000
  2.429638    -0.135977     0.000000
  1.990256    -0.674305     0.000000
  4.839865    -0.853206     0.000000
  2.749332    -0.314067     0.000000
  0.493511    -0.563504     0.000000
  2.840243    -1.430037     0.000000
  4.896425    -1.537975     0.000000
  1.492429    -1.318842     0.000000
  1.503843    -0.088946     0.000000
  1.503857    -0.043139     0.000000
  4.820654    -2.521931     0.000000
  4.483113    -0.236859     0.000000
  2.210220    -1.247702     0.000000
  2.269576    -1.581357     0.000000
  3.035444    -0.845545     0.000000
  0.750922    -0.964113     0.000000
  2.983132    -0.299824     0.000000
  4.413567    -0.574287     0.000000
  4.330757    -1.080512     0.000000
  1.979736    -2.000111     0.000000
  2.949039    -0.534566     0.000000
  1.738952    -1.566966     0.000000
  1.067141    -1.251165     0.000000
  3.806044    -2.637422     0.000000
  4.719762    -1.988624     0.000000
  2.153776    -1.442383     0.000000
  2.059630    -0.166707     0.000000
  2.815606    -0.111784     0.000000
  2.834638    -1.269621     0.000000
  4.137013    -0.358788     0.000000
  0.944278    -0.981590     0.000000
  0.931860    -0.975509     0.000000
  3.076557    -0.887599     0.000000
  3.119777    -0.374873     0.000000
  3.275825    -2.934234     0.000000
  2.891548    -2.581231     0.000000
  3.192626    -0.938615     0.000000
  3.226273    -1.849316     0.000000
  3.220983    -1.856512     0.000000
  3.243155    -0.597648     0.000000
  4.576495    -0.814141     0.000000
  1.381153    -1.528070     0.000000
  1.740807    -1.564771     0.000000
  3.418630    -1.299187     0.000000
  3.411585    -1.294780     0.000000
  3.336094    -0.142474     0.000000
  2.644223    -0.203557     0.000000
  3.806535    -2.639132     0.000000
  2.403615    -1.850009     0.000000
  1.586178    -0.076765     0.000000
  2.006098    -0.031136     0.000000
  0.647620    -0.846112     0.000000
  3.488589    -0.867261     0.000000
  3.480504    -0.859370     0.000000
  3.315348    -0.355361     0.000000
  3.817813    -0.350243     0.000000
  2.269531    -1.581153     0.000000
  1.424779    -1.429678     0.000000
  2.828272    -1.280513     0.000000
  4.720959    -1.990891     0.000000
  3.195008    -0.943854     0.000000
  0.421928    -0.436508     0.000000
  4.820001    -2.522755     0.000000
  3.542102    -0.525629     0.000000
  3.529843    -0.508857     0.000000
  3.815668    -0.097711     0.000000
  3.291415    -0.142742     0.000000
  2.839491    -1.430026     0.000000
  2.176438    -1.180600     0.000000
  1.344432    -1.094617     0.000000
  3.069410    -0.888118     0.000000
  1.650457     0.009761     0.000000
  2.585734     0.087590     0.000000
  0.316089     0.041324     0.000000
  3.355473    -1.108157     0.000000
  5.752532    -2.123457     0.000000
  4.577412    -0.827828     0.000000
  3.227875    -0.593353     0.000000
  3.555061    -0.250039     0.000000
  3.534780    -0.210690     0.000000
  1.095516    -0.323556     0.000000
  4.894775    -1.540379     0.000000
  2.638612    -0.770163     0.000000
  4.329733    -1.085565     0.000000
  0.347574     0.567631     0.000000
  3.760787    -0.567765     0.000000
  2.356898    -0.560782     0.000000
  6.498541    -1.388942     0.000000
  3.815030    -0.373708     0.000000
  3.283833    -0.349702     0.000000
  1.042271     0.538261     0.000000
  2.930130    -0.537066     0.000000
  0.581571     1.094686     0.000000
  4.106901     0.046892     0.000000
  3.934136     0.184230     0.000000
  3.925457     0.159862     0.000000
  5.482202    -1.144520     0.000000
  1.509623     2.006147     0.000000
  6.942787    -0.333657     0.000000
  1.700497     0.312840     0.000000
  1.756353     0.322590     0.000000
  3.732939     0.945608     0.000000
  1.260104     1.426084     0.000000
  4.836446    -0.856819     0.000000
  1.828722     0.131599     0.000000
  4.128584    -0.369878     0.000000
  3.098501    -0.381200     0.000000
  1.151715     1.314946     0.000000
  3.105511     1.642877     0.000000
  2.276320     1.982053     0.000000
  4.409002    -0.580679     0.000000
  3.218544    -0.146262     0.000000
  3.795140    -0.137577     0.000000
  3.068476    -0.362488     0.000000
  5.873112    -0.535355     0.000000
  1.430153     1.861543     0.000000
  6.892009     0.915893     0.000000
  3.219369     0.400518     0.000000
  3.460955     1.149508     0.000000
  1.931913    -0.021194     0.000000
  1.900059     0.794596     0.000000
  2.618351    -0.218508     0.000000
  6.151461     2.139957     0.000000
  3.320691    -0.156454     0.000000
  3.483516     3.307902     0.000000
  5.190877    -0.517443     0.000000
  2.954002    -0.296062     0.000000
  4.828527     3.001283     0.000000
  5.976391     0.220478     0.000000
  2.631760     2.358376     0.000000
  4.781454    -0.378780     0.000000
  2.703950     1.756067     0.000000
  2.358515     0.386271     0.000000
  1.702779     0.869874     0.000000
  1.400045     0.308772     0.000000
  1.404386     0.109199     0.000000
  1.634640     0.803890     0.000000
  5.667581     1.000109     0.000000
  4.474867    -0.240656     0.000000
  2.533940     0.009928     0.000000
  1.550850    -0.052463     0.000000
  2.423570    -0.106030     0.000000
  5.373404    -0.093523     0.000000
  3.729781     2.216136     0.000000
  1.987163    -0.043804     0.000000
  1.557954    -0.106079     0.000000
  3.185783     0.112032     0.000000
  5.508446     2.005159     0.000000
  2.518486     0.825386     0.000000
  2.804662    -0.117340     0.000000
  2.044474    -0.180273     0.000000
  5.023966    -0.155800     0.000000
  3.120158     1.616112     0.000000
  5.286172     0.389551     0.000000
  1.500472    -0.043877     0.000000
  1.496690    -0.088525     0.000000
  2.751812     0.495677     0.000000
  3.754238     1.492428     0.000000
  4.860870     0.858510     0.000000
  2.878401     1.135356     0.000000
  5.071452     0.066642     0.000000
  3.183006    -0.093117     0.000000
  1.464131    -0.013555     0.000000
  4.197267     1.085328     0.000000
  3.294945     1.173582     0.000000
  3.393128     0.905032     0.000000
  2.488005    -0.013508     0.000000
  1.445220     0.136320     0.000000
  5.618554     0.350786     0.000000
  3.662977     1.013709     0.000000
  3.107257     0.913623     0.000000
  4.383440     0.543253     0.000000
  2.470760     0.049316     0.000000
  1.467090     0.276809     0.000000
  2.548878     0.655240     0.000000
  3.944198     0.679872     0.000000
  3.340161     0.865398     0.000000
  1.567066     0.057802     0.000000
  1.505079     0.356465     0.000000
  3.554195     0.662522     0.000000
  3.411005     0.269500     0.000000
  3.154430     0.771916     0.000000
  2.924688     0.149770     0.000000
  1.544183     0.375031     0.000000
  3.774133     0.360982     0.000000
  3.266307     0.647402     0.000000
  1.996162     0.099282     0.000000
  1.574917     0.342784     0.000000
  3.980239     0.443896     0.000000
  2.408960     0.142872     0.000000
  2.135200     0.313520     0.000000
  2.264631     0.123954     0.000000
  3.238928     0.215913     0.000000
  1.674692     0.052281     0.000000
  1.057136     0.094851     0.000000
  1.066181     0.047441     0.000000
