# vtk DataFile Version 1.0.
RESULT
ASCII

DATASET UNSTRUCTURED_GRID

POINTS 2732 float
      1.00000000E+00      1.00000000E+00      0.00000000E+00
      9.86116294E-01      9.86116294E-01      0.00000000E+00
      1.00000000E+00      9.80000000E-01      0.00000000E+00
      9.80000000E-01      1.00000000E+00      0.00000000E+00
      9.86075372E-01      9.67207568E-01      0.00000000E+00
      9.72232588E-01      9.72232588E-01      0.00000000E+00
      9.60000000E-01      1.00000000E+00      0.00000000E+00
      1.00000000E+00      9.60000000E-01      0.00000000E+00
      9.79512726E-01      9.53135789E-01      0.00000000E+00
      9.53043286E-01      9.77538184E-01      0.00000000E+00
      9.58348882E-01      9.58348882E-01      0.00000000E+00
      9.40000000E-01      1.00000000E+00      0.00000000E+00
      1.00000000E+00      9.40000000E-01      0.00000000E+00
      9.34612382E-01      9.82422644E-01      0.00000000E+00
      9.81994187E-01      9.31501650E-01      0.00000000E+00
      9.39159580E-01      9.63654478E-01      0.00000000E+00
      9.60374053E-01      9.39444110E-01      0.00000000E+00
      9.44465176E-01      9.44465176E-01      0.00000000E+00
      9.20000000E-01      1.00000000E+00      0.00000000E+00
      1.00000000E+00      9.20000000E-01      0.00000000E+00
      9.20859043E-01      9.70920561E-01      0.00000000E+00
      9.85668372E-01      9.15852836E-01      0.00000000E+00
      9.66409970E-01      9.20577164E-01      0.00000000E+00
      9.25275874E-01      9.49770772E-01      0.00000000E+00
      9.47206500E-01      9.25437275E-01      0.00000000E+00
      9.30581470E-01      9.30581470E-01      0.00000000E+00
      1.00000000E+00      9.00000000E-01      0.00000000E+00
      9.00000000E-01      1.00000000E+00      0.00000000E+00
      9.02549939E-01      9.77437307E-01      0.00000000E+00
      9.72247113E-01      9.01578488E-01      0.00000000E+00
      9.06086573E-01      9.55076367E-01      0.00000000E+00
      9.52977505E-01      9.06447175E-01      0.00000000E+00
      9.11392168E-01      9.35887066E-01      0.00000000E+00
      9.33774089E-01      9.11462873E-01      0.00000000E+00
      9.16697764E-01      9.16697764E-01      0.00000000E+00
      9.77924063E-01      8.82479473E-01      0.00000000E+00
      9.58607897E-01      8.87366790E-01      0.00000000E+00
      8.80000000E-01      1.00000000E+00      0.00000000E+00
      1.00000000E+00      8.80000000E-01      0.00000000E+00
      8.86744314E-01      9.59989554E-01      0.00000000E+00
      8.81609705E-01      9.78637361E-01      0.00000000E+00
      8.92529534E-01      9.41350322E-01      0.00000000E+00
      9.39358933E-01      8.92390711E-01      0.00000000E+00
      8.97508462E-01      9.22003360E-01      0.00000000E+00
      9.20159366E-01      8.97520471E-01      0.00000000E+00
      8.67326716E-01      9.64654582E-01      0.00000000E+00
      9.02814058E-01      9.02814058E-01      0.00000000E+00
      9.83476947E-01      8.63308301E-01      0.00000000E+00
      8.73094886E-01      9.45535643E-01      0.00000000E+00
      9.44854861E-01      8.73262596E-01      0.00000000E+00
      8.62347655E-01      9.83975465E-01      0.00000000E+00
      9.65189198E-01      8.65092471E-01      0.00000000E+00
      8.60000000E-01      1.00000000E+00      0.00000000E+00
      1.00000000E+00      8.60000000E-01      0.00000000E+00
      8.78319161E-01      9.27308956E-01      0.00000000E+00
      9.25626869E-01      8.78398193E-01      0.00000000E+00
      8.83624756E-01      9.08119654E-01      0.00000000E+00
      9.06430902E-01      8.83601071E-01      0.00000000E+00
      8.53895417E-01      9.50906812E-01      0.00000000E+00
      8.48221850E-01      9.69884717E-01      0.00000000E+00
      8.59056964E-01      9.31649930E-01      0.00000000E+00
      8.88930352E-01      8.88930352E-01      0.00000000E+00
      9.30056901E-01      8.57973074E-01      0.00000000E+00
      8.40000000E-01      1.00000000E+00      0.00000000E+00
      1.00000000E+00      8.40000000E-01      0.00000000E+00
      8.64762122E-01      9.13582910E-01      0.00000000E+00
      9.11828322E-01      8.64449445E-01      0.00000000E+00
      9.50235027E-01      8.45237950E-01      0.00000000E+00
      9.76691202E-01      8.38774962E-01      0.00000000E+00
      8.69741050E-01      8.94235948E-01      0.00000000E+00
      8.92634937E-01      8.69696432E-01      0.00000000E+00
      8.34927187E-01      9.55875085E-01      0.00000000E+00
      8.39723545E-01      9.36513497E-01      0.00000000E+00
      8.28175391E-01      9.77576477E-01      0.00000000E+00
      9.33365398E-01      8.39296941E-01      0.00000000E+00
      9.15085736E-01      8.47068562E-01      0.00000000E+00
      8.45392949E-01      9.17400852E-01      0.00000000E+00
      8.75046646E-01      8.75046646E-01      0.00000000E+00
      8.20000000E-01      1.00000000E+00      0.00000000E+00
      1.00000000E+00      8.20000000E-01      0.00000000E+00
      8.50551749E-01      8.99541544E-01      0.00000000E+00
      8.97991805E-01      8.50528040E-01      0.00000000E+00
      9.60588464E-01      8.19688005E-01      0.00000000E+00
      9.40899162E-01      8.22577600E-01      0.00000000E+00
      8.55857344E-01      8.80352242E-01      0.00000000E+00
      8.78800091E-01      8.55800742E-01      0.00000000E+00
      8.20686611E-01      9.41907905E-01      0.00000000E+00
      9.21840335E-01      8.28466371E-01      0.00000000E+00
      9.81219354E-01      8.12410807E-01      0.00000000E+00
      8.15437269E-01      9.60171214E-01      0.00000000E+00
      8.26258899E-01      9.22922277E-01      0.00000000E+00
      8.10466041E-01      9.79527844E-01      0.00000000E+00
      8.31332153E-01      9.03664548E-01      0.00000000E+00
      9.02926355E-01      8.31453968E-01      0.00000000E+00
      8.61162940E-01      8.61162940E-01      0.00000000E+00
      8.37308993E-01      8.84667828E-01      0.00000000E+00
      8.00000000E-01      1.00000000E+00      0.00000000E+00
      1.00000000E+00      8.00000000E-01      0.00000000E+00
      8.84133983E-01      8.36622929E-01      0.00000000E+00
      9.45807517E-01      8.06014303E-01      0.00000000E+00
      9.65322027E-01      8.00328138E-01      0.00000000E+00
      9.26147220E-01      8.09150139E-01      0.00000000E+00
      9.84714430E-01      7.95673735E-01      0.00000000E+00
      8.01415402E-01      9.46254919E-01      0.00000000E+00
      9.07499398E-01      8.15777720E-01      0.00000000E+00
      8.06853283E-01      9.27537270E-01      0.00000000E+00
      8.12969763E-01      9.12433257E-01      0.00000000E+00
      7.96225255E-01      9.65506708E-01      0.00000000E+00
      8.41973638E-01      8.66468536E-01      0.00000000E+00
      8.64943290E-01      8.41910290E-01      0.00000000E+00
      7.91598864E-01      9.84920703E-01      0.00000000E+00
      8.87823890E-01      8.19133782E-01      0.00000000E+00
      8.13556947E-01      8.94027180E-01      0.00000000E+00
      8.47279234E-01      8.47279234E-01      0.00000000E+00
      9.71909996E-01      7.82196829E-01      0.00000000E+00
      8.70264358E-01      8.22727251E-01      0.00000000E+00
      9.33016280E-01      7.90758320E-01      0.00000000E+00
      9.52234920E-01      7.85507789E-01      0.00000000E+00
      7.80000000E-01      1.00000000E+00      0.00000000E+00
      1.00000000E+00      7.80000000E-01      0.00000000E+00
      9.13913670E-01      7.95289685E-01      0.00000000E+00
      7.87612081E-01      9.32849065E-01      0.00000000E+00
      7.82446489E-01      9.51977024E-01      0.00000000E+00
      8.15362475E-01      8.71449834E-01      0.00000000E+00
      7.75896606E-01      9.76515689E-01      0.00000000E+00
      8.94647695E-01      8.00506097E-01      0.00000000E+00
      7.93233037E-01      9.08696143E-01      0.00000000E+00
      8.51074268E-01      8.28022837E-01      0.00000000E+00
      8.27075804E-01      8.51772852E-01      0.00000000E+00
      8.75544353E-01      8.03552770E-01      0.00000000E+00
      9.55585350E-01      7.69905987E-01      0.00000000E+00
      8.33395528E-01      8.33395528E-01      0.00000000E+00
      9.19259012E-01      7.78049088E-01      0.00000000E+00
      9.78218999E-01      7.64480739E-01      0.00000000E+00
      9.37890902E-01      7.71681245E-01      0.00000000E+00
      8.56388261E-01      8.08836926E-01      0.00000000E+00
      7.91135258E-01      8.83251472E-01      0.00000000E+00
      7.68307792E-01      9.37897329E-01      0.00000000E+00
      7.60000000E-01      1.00000000E+00      0.00000000E+00
      1.00000000E+00      7.60000000E-01      0.00000000E+00
      8.08319018E-01      8.55197835E-01      0.00000000E+00
      8.99664677E-01      7.81312742E-01      0.00000000E+00
      7.63120112E-01      9.56956766E-01      0.00000000E+00
      7.57885524E-01      9.76248623E-01      0.00000000E+00
      8.80692287E-01      7.87109587E-01      0.00000000E+00
      7.69224531E-01      9.15753868E-01      0.00000000E+00
      8.16124932E-01      8.36846144E-01      0.00000000E+00
      8.37198520E-01      8.14137071E-01      0.00000000E+00
      7.93069777E-01      8.63500529E-01      0.00000000E+00
      7.72965953E-01      8.91587628E-01      0.00000000E+00
      9.62125313E-01      7.51033983E-01      0.00000000E+00
      8.61078310E-01      7.89928829E-01      0.00000000E+00
      9.42582500E-01      7.54745197E-01      0.00000000E+00
      9.22973423E-01      7.58475450E-01      0.00000000E+00
      9.06272255E-01      7.63018002E-01      0.00000000E+00
      8.19511822E-01      8.19511822E-01      0.00000000E+00
      7.97622365E-01      8.44061507E-01      0.00000000E+00
      8.42963803E-01      7.97096626E-01      0.00000000E+00
      9.79693333E-01      7.43747637E-01      0.00000000E+00
      8.87574469E-01      7.68379941E-01      0.00000000E+00
      7.74864497E-01      8.71687612E-01      0.00000000E+00
      7.40000000E-01      1.00000000E+00      0.00000000E+00
[...]
POINT_DATA 2732
SCALARS Potential float
LOOKUP_TABLE default
35.290309
34.643516
34.991681
34.481422
34.560562
34.190917
33.866073
34.896918
34.350145
33.645552
33.779093
33.277892
34.855928
33.118769
34.387443
33.243252
33.819493
33.386283
32.700076
34.839066
32.724620
34.475434
33.975142
32.851651
33.461264
33.004918
34.842279
32.124202
32.199677
34.133977
32.307596
33.624277
32.467823
33.104177
32.631197
34.295804
33.789676
31.545063
34.857840
31.751567
31.595097
31.930255
33.274048
32.090214
32.748513
31.186038
32.263526
34.463155
31.368793
33.447047
31.031762
33.991556
30.959938
34.885182
31.539371
32.926048
31.717923
32.395264
30.804199
30.621020
30.978195
31.901246
33.083997
30.366688
34.922640
31.171331
32.581098
33.641651
34.336939
31.350742
32.045338
30.237943
30.404618
30.018776
33.213971
32.709586
30.603109
31.544232
29.765684
34.968091
30.789753
32.239761
33.970054
33.453874
30.988721
31.699665
29.829150
32.938400
34.514332
29.647725
30.028263
29.481000
30.219663
32.426723
31.192730
30.443605
29.154107
35.019688
31.903383
33.627352
34.143664
33.107924
34.647948
29.237750
32.596837
29.436252
29.653667
29.054537
30.632538
31.359113
28.897272
32.060631
29.719410
30.847054
34.364407
31.572456
33.344161
33.854166
28.531154
35.077479
32.833193
28.835959
28.642438
29.844033
28.410185
32.308329
29.065468
31.024560
30.255087
31.787782
33.989199
30.507778
33.032089
34.578409
33.532631
31.248282
29.079812
28.222866
27.896364
35.138870
29.697215
32.511519
28.026089
27.837722
31.990387
28.303462
30.000857
30.697143
29.211859
28.494245
34.216709
31.456363
33.710331
33.198267
32.753100
30.176599
29.430784
30.933967
34.682396
32.247953
28.627926
27.248475
35.203093
31.718982
27.224418
27.361965
29.601520
30.378087
27.502984
28.837738
31.205114
33.933480
26.991519
33.431926
27.694956
34.437953
32.925139
32.447482
27.894301
34.911558
29.084916
29.853823
30.660501
31.931974
26.587912
35.268585
28.234558
26.726600
26.604470
31.407556
26.901222
26.447221
29.279170
30.113846
34.626776
27.060859
33.647544
28.485264
34.148449
33.143806
30.915783
27.263868
32.638543
34.956415
32.188674
29.550029
27.443809
28.730004
30.383995
31.654111
26.259226
27.677394
25.978461
26.077016
25.911066
35.333718
26.422195
31.131154
33.885605
34.644699
33.385262
28.975893
29.827548
26.589539
32.895138
27.970901
32.393934
26.809458
30.644346
29.266102
26.996198
31.687167
30.107536
28.220135
25.606768
25.459125
25.336390
25.762114
25.973318
27.249371
31.171274
25.220732
35.397522
34.152730
33.598105
33.104351
26.151003
32.642050
34.658016
28.541912
29.598195
26.399878
31.928945
27.450023
30.666538
29.001509
30.132121
26.598315
31.429507
24.939798
25.102250
25.304930
24.774032
27.733441
33.342372
33.824398
25.494016
34.315982
26.886815
30.922423
34.906520
32.854996
24.513647
35.458186
28.507507
29.209789
32.201862
25.733186
25.949377
31.710430
27.896601
29.639500
27.100925
30.415825
28.757724
26.227442
31.226268
24.259945
24.413072
24.614027
24.800942
24.055123
27.433656
29.893319
33.545469
34.028773
33.086117
25.040923
34.516274
28.184399
29.090639
32.606413
26.470532
30.728553
35.097669
23.793503
35.513912
31.955137
25.256332
26.794927
30.237229
28.535253
25.540100
31.472793
27.591228
29.406718
23.917012
23.725182
23.541571
24.099931
23.433013
33.764280
25.785083
30.990271
33.288912
24.304094
34.239104
27.977366
28.872911
32.817570
27.071889
29.727697
34.724407
32.207512
24.552244
26.125204
30.499024
31.743346
24.834774
23.057231
35.562794
28.334338
27.382934
29.205680
31.274290
25.100248
22.913526
26.407688
30.039531
23.199115
27.793751
28.675316
23.322435
22.863567
33.499442
30.813170
25.430718
33.954889
23.574610
33.022116
34.430485
24.205520
23.822550
26.763704
29.531720
31.975276
35.007271
28.155376
25.725018
30.342299
32.459999
27.196857
29.025384
31.517487
24.367083
22.305571
35.605473
22.499500
31.062194
24.704858
27.633056
28.499705
22.164187
22.530508
33.227198
33.685895
23.464998
26.097323
29.792857
34.152470
32.822171
30.603084
25.077661
34.622962
23.785141
27.998312
23.033669
35.105252
22.580055
31.681035
26.571603
29.287445
21.980801
25.405696
30.157371
31.304560
23.947149
28.345413
27.492872
32.025605
21.849270
21.539701
35.638794
30.897903
24.329417
32.428381
28.738157
27.000035
23.043843
33.409920
33.873097
32.973308
34.326350
21.394609
27.863634
25.687616
29.719081
21.730632
34.798258
30.463831
24.661864
35.261573
31.586058
23.234846
21.250400
31.185231
23.578833
27.378439
28.214579
22.009688
29.190086
26.085348
21.624285
25.037341
30.028287
32.639644
22.262514
30.777108
23.912564
21.116134
27.750628
32.213268
20.763650
35.661666
33.588380
33.145554
20.731795
34.039355
34.500904
31.797534
22.435639
20.654489
24.266737
30.375993
25.360711
29.623254
28.103192
35.104304
27.337342
31.391058
22.780002
28.574451
20.930101
20.507099
31.031760
23.105728
21.142768
32.834435
27.659214
21.407682
26.671231
32.413807
29.186668
24.588892
29.984049
25.779650
33.315075
30.655874
23.455746
33.746912
32.005671
21.636516
20.061330
20.368477
28.015310
27.208391
34.202150
19.974671
35.673583
34.655620
31.616189
21.959045
23.961038
19.902435
30.271454
27.590404
24.972665
29.600718
31.233818
22.281099
20.237864
26.166197
28.779540
35.169904
20.325442
32.999200
30.859839
22.697969
19.750655
20.563304
32.577613
27.877041
27.207983
32.177181
20.801616
28.322821
26.652018
33.460985
33.898619
30.503582
23.117936
29.216442
25.399750
31.791557
21.108479
34.346833
27.543313
30.070367
23.960337
19.603698
19.251693
34.807626
19.176389
35.674065
31.433911
21.415875
27.903769
19.139485
27.085734
21.815408
31.079842
24.583056
29.612260
19.517213
33.144401
19.744739
32.733994
28.838113
35.241602
27.518504
19.972299
32.337138
30.736230
22.224607
18.981489
20.251513
31.960557
33.601010
18.653321
34.032751
26.487870
30.395178
34.485779
20.536117
31.597567
25.625251
27.826507
22.852833
34.873787
18.534106
27.076932
31.252145
20.892941
29.355378
18.372072
35.661749
28.305433
27.514201
18.765391
24.640394
30.085555
18.366580
30.924896
21.289007
18.919653
33.273687
32.864318
19.123460
32.469456
27.875732
23.635793
19.377974
32.093647
26.702559
18.012285
30.620512
21.749350
29.767721
27.145883
35.222784
25.795028
33.722590
19.638780
26.267031
31.745680
18.189654
27.532457
34.160328
29.160972
25.385301
24.866507
34.609573
31.408867
28.093598
19.956742
28.710434
30.333041
17.759004
28.407471
24.418421
31.093555
18.034747
20.300749
23.851373
17.562514
35.637034
30.095182
26.424319
26.827298
26.001036
22.250427
27.210110
18.101351
33.397077
32.985984
25.558599
27.571110
18.288702
32.590144
30.801961
25.093384
17.584913
18.512699
27.912549
32.216373
23.365815
28.972660
20.704697
29.535983
24.608463
28.239891
18.739765
31.859879
24.100206
22.754287
33.835657
30.537223
29.219297
28.544885
19.020621
31.527498
17.195341
34.270883
17.409035
35.238914
34.796783
23.572875
28.825901
31.219906
21.131362
19.315175
29.440439
22.179150
30.296539
23.023701
16.978228
29.086754
30.944144
29.983155
17.229865
19.667460
33.086837
17.448188
33.500600
21.577506
32.688160
16.751014
35.599473
17.645793
22.457314
29.604242
32.309991
29.321461
17.863645
31.958681
30.693225
16.795914
16.559740
18.078189
31.619551
21.867998
29.813021
29.529788
33.933085
20.983350
18.328596
30.475438
19.900478
31.312096
34.418365
16.378745
16.608266
21.260633
29.715977
31.046698
35.027869
29.951209
20.321897
18.619441
30.256056
33.180127
16.193405
32.776612
30.802975
33.598622
32.394580
29.882192
20.631656
16.412108
30.100722
16.743486
32.030836
15.940931
35.549481
19.734494
17.158756
31.692788
30.597524
16.001667
30.025495
17.353695
16.729796
31.380496
19.987395
15.784475
34.023999
18.653786
30.206854
17.604016
31.099710
18.997009
16.121314
30.406979
15.599264
30.147049
15.801005
19.324240
30.857944
30.298670
34.551863
32.848097
33.258004
32.457534
32.091267
33.594914
15.398167
30.245755
18.382448
31.740167
30.659435
15.869502
18.648600
31.424196
16.219527
15.524571
15.134573
35.489132
30.356318
35.036490
31.132401
15.194617
17.283540
15.011590
30.320692
16.602456
30.474609
17.618160
30.881718
17.958590
30.400735
15.589243
15.264562
14.820758
32.913309
32.514889
33.730797
30.674100
33.330429
14.943377
15.904704
30.371469
32.133218
31.775227
34.204588
16.985180
31.441242
14.608671
17.260587
30.412379
34.658547
14.441887
31.138627
14.988034
30.398549
15.269350
14.691554
14.333731
35.416769
30.873806
30.457851
15.607763
14.398210
14.243496
30.411520
16.552269
15.840422
16.201594
30.654018
30.400413
32.558112
32.967376
32.168912
14.046016
14.671653
14.408796
33.392780
31.797278
30.485915
14.929144
33.830095
14.126897
31.447855
13.829319
34.278278
31.126620
30.371236
15.841409
13.830793
15.560163
34.806970
30.376674
30.839543
14.106831
14.313978
13.857302
13.542576
35.336421
30.593975
30.340447
14.532773
13.476266
13.572489
30.308953
15.127373
30.327624
32.599820
32.194154
33.018815
31.807543
14.772892
33.452627
30.344198
31.445124
13.276935
13.758414
13.555415
33.893487
31.102701
13.923301
13.318420
34.346926
30.790788
14.144388
30.220183
30.252340
14.418153
12.984620
34.808741
13.050489
30.517884
14.081863
13.230066
13.381042
13.035493
30.288190
12.761813
35.247250
30.131791
12.722894
13.470047
12.815912
32.218852
32.633974
31.813505
30.146794
33.064263
31.432202
13.709759
33.503072
31.070211
33.952712
12.516298
30.733274
13.355832
12.855880
12.712700
12.947545
12.364786
30.426967
12.510319
34.489246
30.016430
12.971021
29.957286
29.950595
30.161660
12.288444
13.015323
12.184275
12.370351
29.949818
12.450325
12.221553
12.661328
11.993962
35.151405
32.666952
31.417477
11.971828
33.107833
32.224352
12.437394
12.034217
29.857589
29.797937
33.557764
30.673141
12.337975
34.012905
31.706578
31.008421
30.336137
11.764165
11.989612
11.882517
11.636306
30.025934
11.977192
11.724496
34.556362
11.925693
29.667456
29.759146
11.530118
29.579229
11.460036
11.677417
29.544409
32.273780
11.610724
11.529566
11.428514
11.549800
33.153787
11.240331
35.051079
31.163432
30.613851
11.240262
33.607828
11.449634
11.341060
29.448505
30.243221
11.242008
32.648722
31.841639
29.365092
34.069355
11.042948
11.026978
10.973707
11.097029
11.139904
29.580730
30.685653
34.567425
11.059287
10.955237
31.353335
29.197001
29.749707
29.264659
10.657552
10.783092
10.735883
32.059611
29.078047
10.431411
10.714738
10.650282
10.689845
32.989273
10.502574
34.947737
30.853610
10.513364
30.167513
29.827759
10.523910
10.347205
28.916580
10.486501
31.556439
28.907770
10.119262
34.083423
9.851692
10.252341
28.787638
10.303078
10.255981
32.287906
10.313990
10.320359
30.350402
33.572968
29.085061
10.201796
31.047820
10.126704
29.413848
28.766846
28.601196
10.045929
10.058020
31.774876
9.501115
9.298982
28.450258
9.908478
29.610130
9.933927
33.079369
9.893722
34.326702
9.814555
30.530933
9.778854
34.843318
9.705862
9.790996
32.540664
9.697846
31.255883
28.253478
33.814255
9.628719
28.285581
9.207541
8.777674
9.601829
8.951825
32.010294
9.558042
29.827186
28.088067
9.538696
33.300092
9.495312
30.735947
9.345583
29.108851
9.354452
27.866560
9.344078
28.262407
9.023094
8.288187
31.484652
32.781386
8.403367
9.150038
29.287194
27.786869
9.177284
30.004194
34.063257
9.160532
9.127101
8.504109
9.107144
28.497563
9.072243
34.739795
32.257734
9.077827
27.777711
30.952565
8.498621
33.548654
7.834481
27.455861
8.933220
8.769052
8.902610
27.743937
7.910174
27.379967
31.721588
29.451049
33.028583
8.392609
8.779852
8.630943
28.734421
7.950700
27.339309
30.408197
8.689466
27.743664
8.664507
7.423079
8.646262
8.323941
27.919577
34.311534
8.635013
27.002110
31.183474
32.504740
7.955800
27.334649
8.451291
28.894804
33.797119
8.231260
26.886198
8.447076
7.930134
27.360800
8.425839
7.503287
27.939989
29.850365
8.381882
34.638909
31.972351
7.035120
8.383085
8.353910
30.633828
8.298733
33.277482
7.201249
8.108494
28.154562
7.873573
27.417542
7.512659
26.512797
26.780332
8.229229
8.195122
8.127236
28.967293
31.434254
7.546483
32.751924
7.789708
27.501422
6.686423
7.960915
28.312094
26.784705
26.332330
30.081978
8.003516
29.287055
7.524068
6.837411
7.997924
7.977633
34.049173
7.972301
26.897869
7.946035
32.218870
25.990812
7.678085
27.613476
30.883716
7.786938
28.495556
7.843557
6.954781
6.369710
33.535695
7.794882
7.370773
26.968088
29.509230
31.677692
6.476540
7.706044
34.542530
7.539266
27.751409
7.720640
25.789076
26.034119
7.673787
7.665578
33.012770
30.327625
7.588874
28.704155
25.437870
6.088579
7.267419
27.059769
7.568373
6.943725
7.374471
27.915843
31.125972
26.253591
32.480288
6.207288
7.355820
28.925746
29.752820
7.379762
7.135722
27.182485
7.341625
7.348194
6.341863
5.837048
33.914322
7.321334
25.169541
31.941379
24.858092
30.564568
7.184397
28.105799
7.240108
7.199065
5.920110
7.201930
33.273265
26.514055
6.825584
6.977983
27.329535
6.358900
5.616303
7.091501
29.162027
31.389707
7.046507
34.452150
7.060643
7.022213
24.632156
6.970050
28.320162
32.743589
29.991322
24.246897
24.944231
5.668247
6.914593
6.794542
27.503274
5.425883
30.831258
32.204305
6.816046
25.545519
29.420988
26.657288
6.795004
5.494210
33.995510
6.732280
28.558015
6.554602
33.544269
6.704097
5.741528
6.707154
5.266807
23.612974
6.680926
6.585988
27.701240
23.948725
6.276556
6.647571
30.255645
6.088000
5.920490
33.018924
6.564731
6.539077
6.394973
26.838750
5.326742
31.592318
5.135258
29.702307
6.471676
28.818657
6.226805
25.943672
6.431072
6.401452
34.369790
23.365801
6.322740
27.162815
22.951417
6.395036
6.364461
27.934458
5.382538
5.171988
6.321223
5.033483
31.008900
33.815158
23.550428
6.183408
6.189595
29.100707
32.331884
6.170139
5.879014
25.163952
22.272651
6.002784
26.139552
6.128230
28.199009
24.248103
4.958138
5.065814
6.073138
22.626312
6.003084
27.286037
5.718974
6.051931
29.882369
5.605435
30.346372
28.583231
33.189235
4.911199
4.973227
5.940473
31.783861
26.600841
5.838989
21.578964
5.421772
5.282132
5.884728
29.405527
5.869286
5.835880
5.063929
5.679739
25.378294
5.823841
21.930763
4.889056
5.780975
5.781047
5.769832
34.297529
27.625528
32.650826
4.917081
5.107162
31.229985
5.708685
20.873048
4.893437
22.321278
5.421699
23.310235
24.015085
4.884356
28.050419
5.587957
21.154494
32.109858
5.545366
33.505269
5.559685
29.730540
28.642717
5.462892
25.733041
24.570019
5.537425
30.676450
4.892463
5.201561
5.269023
4.921941
5.467459
20.162965
5.469035
5.439819
4.874229
5.389831
5.407872
5.043912
4.975708
32.982242
26.722702
20.517681
5.331086
31.563409
4.955995
5.285954
26.113155
4.897638
19.448719
5.298936
29.120079
5.052717
5.221609
30.068600
5.208247
4.849725
27.344808
5.150651
34.234147
5.104970
32.446652
5.147579
5.133401
24.568893
4.932834
19.729454
23.903108
5.154010
33.822780
18.738749
20.894425
30.996022
5.106961
4.807196
23.172199
4.957389
5.009407
22.416112
4.761975
5.278060
5.034610
28.495166
4.855952
18.031333
33.309244
4.947608
31.902206
29.466367
4.934730
21.551401
4.804587
19.088374
4.962621
4.943848
27.910290
25.246341
5.424904
4.727737
5.088383
4.839937
4.874891
30.415302
4.882042
4.849637
17.332873
5.210290
5.594535
4.692832
18.306949
32.784761
4.742284
4.653719
31.342173
4.738504
5.786291
16.641920
4.725691
28.859111
4.689315
4.673326
19.445404
5.336855
4.603018
23.790291
25.695211
29.821174
5.999757
23.095500
4.656403
4.633593
17.674589
27.093731
4.971941
4.602982
4.542402
34.184885
32.246047
15.966119
4.558286
5.494388
33.636283
6.234111
26.391165
22.299239
4.521134
30.769146
24.426780
4.586392
4.554434
4.529293
16.908020
21.558448
15.302185
6.490043
5.676637
4.482848
4.482309
4.386701
28.229485
4.459019
4.617852
20.594205
6.766489
14.657711
33.119147
31.694444
4.364046
4.436485
29.238271
5.878223
5.179085
4.406543
16.292993
7.062828
14.028554
19.603443
4.404601
30.183267
4.238122
18.012758
7.383077
24.935564
15.584992
4.294405
4.337590
13.422016
6.102961
4.281387
7.719754
12.832271
4.669496
32.596807
27.567479
6.347481
8.080510
4.162806
4.373385
5.450562
12.264819
8.463163
4.161059
31.129212
4.242770
23.764294
23.075881
14.967838
11.716695
8.866282
6.615807
28.609244
4.227017
11.189956
9.289807
26.498637
4.164293
14.315272
9.732182
10.682079
10.197581
6.933966
4.376938
22.307752
4.795777
25.411717
16.671920
4.177572
29.581531
4.106783
32.052491
3.983650
7.205825
34.150328
3.943576
21.488336
5.815037
13.711587
20.669797
13.055287
3.993436
30.551739
4.401799
4.149671
4.119791
7.758356
3.948142
33.560867
24.151292
4.958095
3.833582
4.139514
8.145673
12.533050
11.922416
10.897233
19.743739
9.023327
15.394517
26.901696
3.900624
8.591788
27.968803
4.482352
9.904904
3.938823
11.355394
32.952210
3.759866
3.795118
31.495137
9.496533
25.782737
28.969004
6.314712
10.425710
7.414996
3.856038
18.692338
3.884914
4.097803
5.190423
29.959142
24.601005
3.729848
14.205175
3.789143
3.607397
3.843967
4.581575
4.124701
32.416436
3.596918
7.776543
22.333057
3.665899
30.926196
6.980191
3.595848
3.794863
27.312762
23.342915
3.821802
17.706468
16.855966
28.375549
21.548378
8.217548
5.472653
26.206263
4.155948
3.612475
4.728856
10.750278
20.736609
7.466693
8.832057
3.788819
29.349728
25.047245
12.770545
3.834392
3.568656
3.423322
31.866909
3.351524
34.133576
19.875980
3.349944
33.367498
4.217644
11.649962
15.710287
30.342603
3.388827
23.820703
4.929996
3.818341
9.746030
3.382914
18.961657
7.772075
27.723009
4.330326
26.635960
3.349045
32.786988
31.306585
3.203160
5.901487
3.237769
3.405952
14.665354
3.841607
28.751465
3.374474
25.491375
3.412895
3.318206
3.434874
18.006442
5.168669
8.231388
29.749395
24.295144
3.176394
7.386628
6.488300
22.389819
21.591567
4.451038
3.868793
3.423736
3.369316
3.045183
32.245044
17.030622
3.458827
13.665740
30.731948
20.778866
3.044256
33.672500
2.931954
23.021692
3.086497
27.060647
3.956228
28.112999
16.069812
19.966606
5.458208
25.938058
3.458255
7.747208
4.641890
31.693256
29.138671
24.756883
3.482443
10.420054
2.873806
33.164922
19.091180
2.801018
12.710185
8.717681
4.047855
2.762445
34.137212
6.979233
15.077011
2.951602
30.143413
3.521704
2.842828
7.415977
23.520688
11.961483
8.132950
4.856172
18.241727
4.198929
2.946778
6.098289
27.495819
2.901581
2.963032
2.869156
3.000456
26.382801
3.575157
2.659370
32.630889
2.810080
31.127465
14.104133
9.636474
22.370897
2.693428
3.006743
17.316246
28.513031
25.222806
21.668416
7.700185
3.007297
3.647555
3.064181
20.889485
29.548449
6.533518
10.998183
24.009251
16.391636
32.087053
4.336460
20.088846
3.091855
2.612661
5.164699
2.503261
13.155547
33.554252
5.673205
2.592968
2.389516
30.547972
2.509246
3.744359
2.526835
22.731797
19.248118
26.835021
15.447726
3.115507
8.081593
7.275062
25.718136
4.553755
27.900384
3.187204
3.885938
31.529999
24.501617
18.381486
28.921211
2.398257
10.128566
2.262045
33.028222
2.339045
12.249516
14.509362
2.168760
34.173920
3.229445
17.565324
8.616812
7.631105
2.518983
4.786446
2.410755
23.240855
2.436524
2.469409
29.977124
4.038102
32.489301
2.539540
2.587268
3.332418
6.102917
2.330337
27.243008
16.647500
20.975974
2.602051
2.125332
11.401919
26.153473
13.597148
30.958822
24.998916
2.657585
2.261075
9.382477
2.165363
6.719525
28.288625
7.952800
1.964406
2.702586
20.177486
2.194154
7.187106
4.210460
3.405391
15.737091
29.347645
19.407316
31.940490
4.954101
21.801953
23.760635
2.745205
2.108853
10.597468
30.416759
12.716516
2.821321
5.305998
1.844093
33.446165
3.547882
26.565287
2.022255
18.568774
1.922607
1.983482
14.838773
22.512139
4.430286
7.539713
27.642060
25.455101
2.879269
3.692842
9.943944
5.668296
17.710790
11.858856
31.377517
24.281560
2.980287
1.736003
28.698582
2.121220
2.026647
2.059064
13.942409
1.962836
16.887160
34.258069
1.543295
2.144371
2.211125
1.917534
32.900722
21.091620
4.634209
7.912753
7.075626
1.727964
3.856379
1.847003
2.231307
3.064251
20.310013
2.304345
11.038031
1.786435
16.016339
6.100904
26.986423
1.617718
32.266851
25.921103
13.076272
3.201549
1.650183
1.389594
33.900666
1.704677
19.544089
2.338742
28.059520
33.325856
29.906635
4.914284
4.056393
22.845029
24.679006
2.423480
18.739108
8.397162
15.146564
7.426484
30.694278
31.802554
23.546060
1.584174
3.329700
5.262282
12.227249
2.492311
1.529181
17.917620
10.209570
26.434831
21.949130
14.281518
1.470431
9.395797
2.594320